    7    7    1    2
  0.4526821E+02  0.3560145E-09  0.3560146E-09  0.2886856E-08  0.5000000E-15
  1.000000000000000E-004
  CAR 
 unknown system                          
     39     56    160
 
  0.0000000E+00  0.0000000E+00  0.0000000E+00  0.1234568E-01
    1      -18.024177    -18.074593   1.000000   1.000000
    2      -17.800768    -17.790740   1.000000   1.000000
    3      -17.340595    -17.395881   1.000000   1.000000
    4      -15.278475    -15.426187   1.000000   1.000000
    5       -9.433785     -9.395925   1.000000   1.000000
    6       -7.744636     -7.718538   1.000000   1.000000
    7       -6.441803     -5.712209   1.000000   1.000000
    8       -6.441751     -5.511174   1.000000   1.000000
    9       -5.788548     -5.511161   1.000000   1.000000
   10       -3.971903     -3.814894   1.000000   1.000000
   11       -3.971862     -3.814862   1.000000   1.000000
   12       -3.820465     -3.773753   1.000000   1.000000
   13       -3.820433     -3.773722   1.000000   1.000000
   14       -3.794092     -3.495173   1.000000   1.000000
   15       -3.794061     -2.465225   1.000000   1.000000
   16       -3.486336     -2.465202   1.000000   1.000000
   17       -3.061075     -2.453423   1.000000   1.000000
   18       -2.142888     -2.453404   1.000000   1.000000
   19       -2.142861     -2.268291   1.000000   1.000000
   20        0.560396      0.903436   0.000000   0.000000
   21        0.560466      1.096303   0.000000   0.000000
   22        0.863391      2.888370   0.000000   0.000000
   23        1.086185      2.888374   0.000000   0.000000
   24        3.312750      3.336489   0.000000   0.000000
   25        3.570624      3.580101   0.000000   0.000000
   26        3.735472      3.763124   0.000000   0.000000
   27        3.866031      3.881213   0.000000   0.000000
   28        4.361170      4.380947   0.000000   0.000000
   29        4.361202      4.381976   0.000000   0.000000
   30        4.369565      4.382009   0.000000   0.000000
   31        4.404711      4.579819   0.000000   0.000000
   32        4.404737      4.579838   0.000000   0.000000
   33        4.585894      4.604734   0.000000   0.000000
   34        5.246762      5.266079   0.000000   0.000000
   35        5.886116      5.894391   0.000000   0.000000
   36        6.766908      6.932593   0.000000   0.000000
   37        6.975429      6.983844   0.000000   0.000000
   38        7.090431      7.083385   0.000000   0.000000
   39        7.090448      7.083401   0.000000   0.000000
   40        8.125998      8.133949   0.000000   0.000000
   41        9.490500      9.499473   0.000000   0.000000
   42        9.502000      9.624732   0.000000   0.000000
   43        9.502023      9.624760   0.000000   0.000000
   44        9.753564      9.794760   0.000000   0.000000
   45        9.753571      9.794773   0.000000   0.000000
   46       10.206660     10.219600   0.000000   0.000000
   47       10.206695     10.219634   0.000000   0.000000
   48       10.247657     10.278171   0.000000   0.000000
   49       10.329997     10.346426   0.000000   0.000000
   50       10.882807     10.903621   0.000000   0.000000
   51       11.876426     11.880606   0.000000   0.000000
   52       11.876457     11.880638   0.000000   0.000000
   53       12.231217     12.252013   0.000000   0.000000
   54       12.590078     12.746896   0.000000   0.000000
   55       13.011940     13.010627   0.000000   0.000000
   56       13.093514     13.099631   0.000000   0.000000
   57       13.110180     13.353185   0.000000   0.000000
   58       13.110192     13.353197   0.000000   0.000000
   59       14.280179     14.347231   0.000000   0.000000
   60       14.662400     14.702623   0.000000   0.000000
   61       14.662410     14.702636   0.000000   0.000000
   62       14.782348     14.822881   0.000000   0.000000
   63       15.787943     15.828489   0.000000   0.000000
   64       16.103843     16.161623   0.000000   0.000000
   65       16.540668     16.531692   0.000000   0.000000
   66       16.540713     16.531737   0.000000   0.000000
   67       16.986082     17.012078   0.000000   0.000000
   68       17.004073     17.015961   0.000000   0.000000
   69       17.004102     17.015995   0.000000   0.000000
   70       18.055631     18.084050   0.000000   0.000000
   71       18.500303     18.515034   0.000000   0.000000
   72       18.524904     18.592085   0.000000   0.000000
   73       18.524924     18.592091   0.000000   0.000000
   74       18.806082     18.824178   0.000000   0.000000
   75       19.200690     19.210461   0.000000   0.000000
   76       19.200830     19.210516   0.000000   0.000000
   77       19.513382     19.516370   0.000000   0.000000
   78       19.513541     19.516463   0.000000   0.000000
   79       19.526401     19.532118   0.000000   0.000000
   80       19.598858     19.606354   0.000000   0.000000
   81       19.712391     19.721670   0.000000   0.000000
   82       19.712461     19.721770   0.000000   0.000000
   83       19.793730     19.795815   0.000000   0.000000
   84       19.828902     19.835704   0.000000   0.000000
   85       19.841128     19.849297   0.000000   0.000000
   86       19.841511     19.849707   0.000000   0.000000
   87       20.072818     20.072857   0.000000   0.000000
   88       20.072914     20.072868   0.000000   0.000000
   89       20.283508     20.299030   0.000000   0.000000
   90       20.283577     20.299088   0.000000   0.000000
   91       20.472654     20.486962   0.000000   0.000000
   92       20.496001     20.506051   0.000000   0.000000
   93       20.667536     20.668775   0.000000   0.000000
   94       20.709885     20.733729   0.000000   0.000000
   95       20.809667     20.826473   0.000000   0.000000
   96       20.809783     20.826577   0.000000   0.000000
   97       20.844663     20.847917   0.000000   0.000000
   98       20.844956     20.848258   0.000000   0.000000
   99       20.892326     20.902570   0.000000   0.000000
  100       21.397564     21.441200   0.000000   0.000000
  101       21.483265     21.486284   0.000000   0.000000
  102       21.483363     21.486357   0.000000   0.000000
  103       21.681685     21.695862   0.000000   0.000000
  104       21.681728     21.695917   0.000000   0.000000
  105       22.136388     22.142719   0.000000   0.000000
  106       22.175939     22.188308   0.000000   0.000000
  107       22.324979     22.332047   0.000000   0.000000
  108       22.483354     22.495424   0.000000   0.000000
  109       22.483412     22.495522   0.000000   0.000000
  110       22.512003     22.531686   0.000000   0.000000
  111       22.658371     22.663201   0.000000   0.000000
  112       22.658598     22.663448   0.000000   0.000000
  113       23.433950     23.437844   0.000000   0.000000
  114       23.434029     23.437860   0.000000   0.000000
  115       23.656766     23.666278   0.000000   0.000000
  116       23.656833     23.666281   0.000000   0.000000
  117       23.993245     23.996938   0.000000   0.000000
  118       24.012015     24.040292   0.000000   0.000000
  119       24.354739     24.363840   0.000000   0.000000
  120       24.698284     24.705095   0.000000   0.000000
  121       24.738626     24.747411   0.000000   0.000000
  122       24.738864     24.747620   0.000000   0.000000
  123       24.839900     24.875356   0.000000   0.000000
  124       24.871906     24.875525   0.000000   0.000000
  125       24.872003     24.883644   0.000000   0.000000
  126       24.940985     24.953093   0.000000   0.000000
  127       25.766259     25.767467   0.000000   0.000000
  128       25.766267     25.767502   0.000000   0.000000
  129       25.889545     25.894938   0.000000   0.000000
  130       25.889591     25.894965   0.000000   0.000000
  131       26.751552     26.754128   0.000000   0.000000
  132       26.826443     26.830692   0.000000   0.000000
  133       26.897413     26.921751   0.000000   0.000000
  134       27.083392     27.100901   0.000000   0.000000
  135       27.150057     27.150422   0.000000   0.000000
  136       27.150317     27.150647   0.000000   0.000000
  137       27.445369     27.455170   0.000000   0.000000
  138       27.445434     27.455314   0.000000   0.000000
  139       28.194399     28.188686   0.000000   0.000000
  140       28.194463     28.188734   0.000000   0.000000
  141       28.361139     28.368380   0.000000   0.000000
  142       28.361141     28.368405   0.000000   0.000000
  143       28.383244     28.406435   0.000000   0.000000
  144       28.916376     28.942573   0.000000   0.000000
  145       29.560861     29.565940   0.000000   0.000000
  146       29.560961     29.566055   0.000000   0.000000
  147       29.600713     29.608851   0.000000   0.000000
  148       29.634617     29.657258   0.000000   0.000000
  149       29.931026     29.937525   0.000000   0.000000
  150       30.119662     30.129501   0.000000   0.000000
  151       30.119785     30.129622   0.000000   0.000000
  152       30.140123     30.164783   0.000000   0.000000
  153       30.271827     30.267850   0.000000   0.000000
  154       30.271867     30.267891   0.000000   0.000000
  155       31.107823     31.100114   0.000000   0.000000
  156       31.107947     31.100143   0.000000   0.000000
  157       31.666224     31.627126   0.000000   0.000000
  158       31.666258     31.627231   0.000000   0.000000
  159       31.770281     31.759899   0.000000   0.000000
  160       31.770491     31.759992   0.000000   0.000000
 
  0.1111111E+00  0.0000000E+00  0.0000000E+00  0.7407407E-01
    1      -17.879050    -17.930827   1.000000   1.000000
    2      -17.659549    -17.649725   1.000000   1.000000
    3      -17.206969    -17.262979   1.000000   1.000000
    4      -15.247740    -15.390845   1.000000   1.000000
    5       -9.325697     -9.289781   1.000000   1.000000
    6       -7.852680     -7.762305   1.000000   1.000000
    7       -6.424622     -5.793647   1.000000   1.000000
    8       -6.374760     -5.682659   1.000000   1.000000
    9       -5.755455     -5.469641   1.000000   1.000000
   10       -4.721153     -4.700029   1.000000   1.000000
   11       -4.668606     -4.639053   1.000000   1.000000
   12       -4.194348     -4.033037   1.000000   1.000000
   13       -4.158649     -3.973064   1.000000   1.000000
   14       -3.999747     -3.357959   1.000000   1.000000
   15       -3.968904     -3.292560   1.000000   1.000000
   16       -3.321470     -2.917884   1.000000   1.000000
   17       -3.259221     -2.445516   1.000000   1.000000
   18       -2.464018     -2.192942   1.000000   1.000000
   19       -2.223462     -2.068753   1.000000   1.000000
   20       -0.068189      1.479736   0.000000   0.000000
   21        0.483076      1.722153   0.000000   0.000000
   22        1.488851      2.309788   0.000000   0.000000
   23        1.709895      2.874840   0.000000   0.000000
   24        3.350667      3.394451   0.000000   0.000000
   25        3.556247      3.659259   0.000000   0.000000
   26        3.964482      3.983245   0.000000   0.000000
   27        4.012184      4.036512   0.000000   0.000000
   28        4.304171      4.372975   0.000000   0.000000
   29        4.454978      4.512614   0.000000   0.000000
   30        4.572641      4.679481   0.000000   0.000000
   31        4.645872      4.685936   0.000000   0.000000
   32        4.799015      4.932790   0.000000   0.000000
   33        5.005107      5.035028   0.000000   0.000000
   34        5.370930      5.418238   0.000000   0.000000
   35        6.001651      6.010717   0.000000   0.000000
   36        6.625193      6.695690   0.000000   0.000000
   37        6.985028      6.998442   0.000000   0.000000
   38        7.198380      7.318173   0.000000   0.000000
   39        7.555053      7.570851   0.000000   0.000000
   40        8.135629      8.155976   0.000000   0.000000
   41        8.450860      8.528120   0.000000   0.000000
   42        9.101567      9.126729   0.000000   0.000000
   43        9.202018      9.272877   0.000000   0.000000
   44        9.596927      9.619384   0.000000   0.000000
   45        9.806301      9.825246   0.000000   0.000000
   46        9.878405      9.948380   0.000000   0.000000
   47       10.397328     10.430058   0.000000   0.000000
   48       10.896910     10.939262   0.000000   0.000000
   49       11.144465     11.177025   0.000000   0.000000
   50       11.337086     11.357482   0.000000   0.000000
   51       11.758456     11.775930   0.000000   0.000000
   52       12.339603     12.441973   0.000000   0.000000
   53       12.449722     12.444470   0.000000   0.000000
   54       12.901348     12.921508   0.000000   0.000000
   55       13.135472     13.319843   0.000000   0.000000
   56       13.236217     13.381510   0.000000   0.000000
   57       13.656645     13.679411   0.000000   0.000000
   58       13.818916     13.870456   0.000000   0.000000
   59       14.094015     14.106468   0.000000   0.000000
   60       14.957881     14.979520   0.000000   0.000000
   61       15.185781     15.235072   0.000000   0.000000
   62       15.236712     15.269504   0.000000   0.000000
   63       15.495380     15.532990   0.000000   0.000000
   64       15.902448     15.959203   0.000000   0.000000
   65       16.115319     16.132422   0.000000   0.000000
   66       16.545065     16.556207   0.000000   0.000000
   67       16.581369     16.604921   0.000000   0.000000
   68       16.592134     16.614764   0.000000   0.000000
   69       17.068658     17.083054   0.000000   0.000000
   70       17.190562     17.209948   0.000000   0.000000
   71       17.320130     17.339827   0.000000   0.000000
   72       17.481196     17.547672   0.000000   0.000000
   73       17.699029     17.729701   0.000000   0.000000
   74       17.750162     17.748357   0.000000   0.000000
   75       17.907775     17.917861   0.000000   0.000000
   76       18.121293     18.124737   0.000000   0.000000
   77       18.148514     18.169543   0.000000   0.000000
   78       18.313422     18.322649   0.000000   0.000000
   79       18.381125     18.391093   0.000000   0.000000
   80       18.596235     18.599648   0.000000   0.000000
   81       18.695863     18.725789   0.000000   0.000000
   82       19.035631     19.052151   0.000000   0.000000
   83       19.221438     19.253355   0.000000   0.000000
   84       19.296118     19.317382   0.000000   0.000000
   85       19.447229     19.453386   0.000000   0.000000
   86       19.500697     19.520476   0.000000   0.000000
   87       20.007066     20.005763   0.000000   0.000000
   88       20.260744     20.271001   0.000000   0.000000
   89       20.480163     20.506377   0.000000   0.000000
   90       20.619284     20.632363   0.000000   0.000000
   91       20.814917     20.828763   0.000000   0.000000
   92       21.001502     21.017502   0.000000   0.000000
   93       21.035970     21.048995   0.000000   0.000000
   94       21.323352     21.329150   0.000000   0.000000
   95       21.355188     21.365012   0.000000   0.000000
   96       21.435994     21.445728   0.000000   0.000000
   97       21.484816     21.502217   0.000000   0.000000
   98       21.604624     21.622629   0.000000   0.000000
   99       21.784858     21.790374   0.000000   0.000000
  100       21.945155     21.945488   0.000000   0.000000
  101       22.009655     22.042724   0.000000   0.000000
  102       22.217535     22.225242   0.000000   0.000000
  103       22.437775     22.446583   0.000000   0.000000
  104       22.495667     22.509315   0.000000   0.000000
  105       22.572368     22.579650   0.000000   0.000000
  106       22.655483     22.661790   0.000000   0.000000
  107       22.932430     22.947999   0.000000   0.000000
  108       22.979758     22.988790   0.000000   0.000000
  109       23.205158     23.208561   0.000000   0.000000
  110       23.260888     23.272154   0.000000   0.000000
  111       23.606334     23.611064   0.000000   0.000000
  112       23.630389     23.638214   0.000000   0.000000
  113       23.853661     23.860122   0.000000   0.000000
  114       23.874772     23.878834   0.000000   0.000000
  115       23.985414     23.994109   0.000000   0.000000
  116       24.058818     24.069180   0.000000   0.000000
  117       24.266840     24.279418   0.000000   0.000000
  118       24.440269     24.448243   0.000000   0.000000
  119       24.798324     24.805498   0.000000   0.000000
  120       24.893271     24.909510   0.000000   0.000000
  121       25.003133     25.016627   0.000000   0.000000
  122       25.011950     25.038882   0.000000   0.000000
  123       25.135857     25.138697   0.000000   0.000000
  124       25.248987     25.255560   0.000000   0.000000
  125       25.553794     25.559148   0.000000   0.000000
  126       25.658403     25.678059   0.000000   0.000000
  127       25.965263     25.971419   0.000000   0.000000
  128       25.999867     26.002904   0.000000   0.000000
  129       26.065092     26.069949   0.000000   0.000000
  130       26.067485     26.085333   0.000000   0.000000
  131       26.441777     26.451150   0.000000   0.000000
  132       26.834589     26.835491   0.000000   0.000000
  133       26.837427     26.840463   0.000000   0.000000
  134       27.056217     27.061532   0.000000   0.000000
  135       27.126848     27.124480   0.000000   0.000000
  136       27.492702     27.500509   0.000000   0.000000
  137       27.613417     27.619155   0.000000   0.000000
  138       27.641107     27.658275   0.000000   0.000000
  139       27.801477     27.811537   0.000000   0.000000
  140       28.111977     28.119395   0.000000   0.000000
  141       28.327249     28.331480   0.000000   0.000000
  142       28.338772     28.351660   0.000000   0.000000
  143       28.449190     28.469671   0.000000   0.000000
  144       28.755993     28.756073   0.000000   0.000000
  145       28.998264     29.011220   0.000000   0.000000
  146       29.081186     29.085704   0.000000   0.000000
  147       29.112283     29.104013   0.000000   0.000000
  148       29.185499     29.197526   0.000000   0.000000
  149       29.705955     29.721595   0.000000   0.000000
  150       29.824426     29.832687   0.000000   0.000000
  151       29.998849     29.991086   0.000000   0.000000
  152       30.162192     30.124846   0.000000   0.000000
  153       30.289138     30.293878   0.000000   0.000000
  154       30.453850     30.440630   0.000000   0.000000
  155       30.489597     30.482645   0.000000   0.000000
  156       30.601305     30.610227   0.000000   0.000000
  157       30.846578     30.877423   0.000000   0.000000
  158       30.952421     30.949411   0.000000   0.000000
  159       31.109578     31.101287   0.000000   0.000000
  160       31.253639     31.229179   0.000000   0.000000
 
  0.2222222E+00  0.0000000E+00  0.0000000E+00  0.7407407E-01
    1      -17.465758    -17.521381   1.000000   1.000000
    2      -17.261187    -17.252005   1.000000   1.000000
    3      -16.835698    -16.893741   1.000000   1.000000
    4      -15.189783    -15.320564   1.000000   1.000000
    5       -9.111518     -9.083110   1.000000   1.000000
    6       -8.199113     -8.066857   1.000000   1.000000
    7       -6.803040     -6.702183   1.000000   1.000000
    8       -6.362523     -6.329090   1.000000   1.000000
    9       -6.190193     -5.630099   1.000000   1.000000
   10       -5.765588     -5.586542   1.000000   1.000000
   11       -5.629975     -5.367242   1.000000   1.000000
   12       -4.867022     -4.512105   1.000000   1.000000
   13       -4.602009     -4.398336   1.000000   1.000000
   14       -4.450298     -4.355941   1.000000   1.000000
   15       -4.260644     -3.412877   1.000000   1.000000
   16       -3.593225     -3.379347   1.000000   1.000000
   17       -3.264752     -2.568441   1.000000   1.000000
   18       -2.841417     -2.216653   1.000000   1.000000
   19       -2.549634     -2.140867   1.000000   1.000000
   20       -0.924325      1.631781   1.000000   0.000000
   21        0.397990      1.974986   0.000000   0.000000
   22        1.828979      2.263215   0.000000   0.000000
   23        2.047310      2.810656   0.000000   0.000000
   24        2.691646      2.880053   0.000000   0.000000
   25        3.185102      3.365066   0.000000   0.000000
   26        4.273298      4.297237   0.000000   0.000000
   27        4.304710      4.316034   0.000000   0.000000
   28        4.878742      4.887844   0.000000   0.000000
   29        5.099048      5.171789   0.000000   0.000000
   30        5.169234      5.216320   0.000000   0.000000
   31        5.336057      5.365169   0.000000   0.000000
   32        5.550542      5.682687   0.000000   0.000000
   33        5.689463      5.747032   0.000000   0.000000
   34        5.812711      5.851448   0.000000   0.000000
   35        6.443088      6.453639   0.000000   0.000000
   36        6.810978      6.857568   0.000000   0.000000
   37        7.168032      7.242585   0.000000   0.000000
   38        7.512725      7.625659   0.000000   0.000000
   39        7.803217      7.828192   0.000000   0.000000
   40        8.617976      8.704369   0.000000   0.000000
   41        8.677393      8.762128   0.000000   0.000000
   42        8.981357      8.988109   0.000000   0.000000
   43        9.194733      9.233680   0.000000   0.000000
   44        9.537475      9.561878   0.000000   0.000000
   45        9.774528      9.776957   0.000000   0.000000
   46       10.053941     10.075267   0.000000   0.000000
   47       10.565492     10.611142   0.000000   0.000000
   48       10.796543     10.787096   0.000000   0.000000
   49       11.302332     11.314338   0.000000   0.000000
   50       11.625891     11.646081   0.000000   0.000000
   51       12.611622     12.642592   0.000000   0.000000
   52       12.765917     12.792717   0.000000   0.000000
   53       12.793211     12.811950   0.000000   0.000000
   54       13.212520     13.235692   0.000000   0.000000
   55       13.400222     13.433066   0.000000   0.000000
   56       13.640576     13.653566   0.000000   0.000000
   57       13.733366     13.751650   0.000000   0.000000
   58       13.741740     13.903062   0.000000   0.000000
   59       14.115533     14.121923   0.000000   0.000000
   60       14.305879     14.325738   0.000000   0.000000
   61       14.711000     14.717350   0.000000   0.000000
   62       15.006515     15.009390   0.000000   0.000000
   63       15.161839     15.186182   0.000000   0.000000
   64       15.661380     15.681676   0.000000   0.000000
   65       15.930223     15.944380   0.000000   0.000000
   66       15.993481     16.011506   0.000000   0.000000
   67       16.285278     16.341394   0.000000   0.000000
   68       16.317831     16.344982   0.000000   0.000000
   69       16.376138     16.399791   0.000000   0.000000
   70       16.601025     16.627333   0.000000   0.000000
   71       16.672364     16.712501   0.000000   0.000000
   72       16.893515     16.904013   0.000000   0.000000
   73       16.927175     16.942457   0.000000   0.000000
   74       17.177648     17.187684   0.000000   0.000000
   75       17.230492     17.237978   0.000000   0.000000
   76       17.392524     17.408228   0.000000   0.000000
   77       17.423496     17.453587   0.000000   0.000000
   78       17.476223     17.491841   0.000000   0.000000
   79       17.994088     17.994008   0.000000   0.000000
   80       18.384657     18.372490   0.000000   0.000000
   81       18.388884     18.398161   0.000000   0.000000
   82       18.454333     18.475932   0.000000   0.000000
   83       18.751381     18.774156   0.000000   0.000000
   84       18.758734     18.792189   0.000000   0.000000
   85       18.943266     18.973241   0.000000   0.000000
   86       19.158749     19.177255   0.000000   0.000000
   87       19.382524     19.416349   0.000000   0.000000
   88       19.614216     19.624834   0.000000   0.000000
   89       19.894826     19.923918   0.000000   0.000000
   90       20.103648     20.132362   0.000000   0.000000
   91       20.119507     20.133690   0.000000   0.000000
   92       20.397755     20.414086   0.000000   0.000000
   93       20.954970     20.994124   0.000000   0.000000
   94       21.206834     21.213928   0.000000   0.000000
   95       21.450600     21.450001   0.000000   0.000000
   96       21.665838     21.685662   0.000000   0.000000
   97       21.862360     21.871297   0.000000   0.000000
   98       22.072170     22.099467   0.000000   0.000000
   99       22.297914     22.317514   0.000000   0.000000
  100       22.353027     22.362502   0.000000   0.000000
  101       22.532490     22.548292   0.000000   0.000000
  102       22.770589     22.771433   0.000000   0.000000
  103       22.958390     22.987356   0.000000   0.000000
  104       23.167795     23.179812   0.000000   0.000000
  105       23.430380     23.434771   0.000000   0.000000
  106       23.590933     23.593240   0.000000   0.000000
  107       23.743747     23.757005   0.000000   0.000000
  108       23.837587     23.838677   0.000000   0.000000
  109       23.925972     23.934992   0.000000   0.000000
  110       23.955180     23.962456   0.000000   0.000000
  111       24.233762     24.231544   0.000000   0.000000
  112       24.273662     24.281909   0.000000   0.000000
  113       24.347971     24.362838   0.000000   0.000000
  114       24.380600     24.385401   0.000000   0.000000
  115       24.736325     24.746991   0.000000   0.000000
  116       24.791859     24.800797   0.000000   0.000000
  117       24.936041     24.942283   0.000000   0.000000
  118       24.969618     24.975758   0.000000   0.000000
  119       25.359350     25.364899   0.000000   0.000000
  120       25.416986     25.412282   0.000000   0.000000
  121       25.419433     25.445202   0.000000   0.000000
  122       25.531180     25.544123   0.000000   0.000000
  123       25.860840     25.862140   0.000000   0.000000
  124       25.880995     25.909143   0.000000   0.000000
  125       26.111051     26.116935   0.000000   0.000000
  126       26.165877     26.179344   0.000000   0.000000
  127       26.271947     26.297091   0.000000   0.000000
  128       26.641747     26.657720   0.000000   0.000000
  129       26.712504     26.696930   0.000000   0.000000
  130       26.733992     26.711632   0.000000   0.000000
  131       26.917775     26.947818   0.000000   0.000000
  132       27.172229     27.180348   0.000000   0.000000
  133       27.326772     27.334298   0.000000   0.000000
  134       27.394508     27.398137   0.000000   0.000000
  135       27.546740     27.548988   0.000000   0.000000
  136       27.711758     27.722013   0.000000   0.000000
  137       27.742909     27.756775   0.000000   0.000000
  138       27.985460     27.997271   0.000000   0.000000
  139       28.099687     28.109443   0.000000   0.000000
  140       28.198362     28.204821   0.000000   0.000000
  141       28.319384     28.324044   0.000000   0.000000
  142       28.626257     28.635041   0.000000   0.000000
  143       28.692689     28.693134   0.000000   0.000000
  144       28.768858     28.778378   0.000000   0.000000
  145       29.310610     29.317344   0.000000   0.000000
  146       29.542235     29.547229   0.000000   0.000000
  147       29.599284     29.605417   0.000000   0.000000
  148       29.710569     29.724128   0.000000   0.000000
  149       29.726371     29.748095   0.000000   0.000000
  150       29.908695     29.914639   0.000000   0.000000
  151       29.936671     29.951215   0.000000   0.000000
  152       30.166858     30.189310   0.000000   0.000000
  153       30.651359     30.662824   0.000000   0.000000
  154       31.140245     31.148577   0.000000   0.000000
  155       31.259656     31.264462   0.000000   0.000000
  156       31.314063     31.323547   0.000000   0.000000
  157       31.524979     31.510181   0.000000   0.000000
  158       31.642366     31.655475   0.000000   0.000000
  159       31.684065     31.713933   0.000000   0.000000
  160       31.782701     31.782635   0.000000   0.000000
 
  0.3333333E+00  0.0000000E+00  0.0000000E+00  0.7407407E-01
    1      -16.866815    -16.926100   1.000000   1.000000
    2      -16.703738    -16.695603   1.000000   1.000000
    3      -16.333091    -16.395847   1.000000   1.000000
    4      -15.201114    -15.317509   1.000000   1.000000
    5       -9.321591     -9.304633   1.000000   1.000000
    6       -8.980417     -8.924057   1.000000   1.000000
    7       -7.821509     -7.835361   1.000000   1.000000
    8       -7.152712     -7.136986   1.000000   1.000000
    9       -6.319793     -6.136670   1.000000   1.000000
   10       -5.951783     -5.544763   1.000000   1.000000
   11       -5.553004     -5.303136   1.000000   1.000000
   12       -5.046362     -4.969486   1.000000   1.000000
   13       -5.042050     -4.717777   1.000000   1.000000
   14       -4.871854     -4.683453   1.000000   1.000000
   15       -4.495805     -3.881496   1.000000   1.000000
   16       -3.860943     -3.829769   1.000000   1.000000
   17       -3.600385     -2.654075   1.000000   1.000000
   18       -3.212072     -2.424175   1.000000   1.000000
   19       -3.073372     -2.405010   1.000000   1.000000
   20       -1.216789      1.349261   1.000000   0.000000
   21        0.403603      1.607320   0.000000   0.000000
   22        1.308496      1.934281   0.000000   0.000000
   23        1.609954      2.157981   0.000000   0.000000
   24        2.024471      2.928448   0.000000   0.000000
   25        2.882682      3.322698   0.000000   0.000000
   26        4.207116      4.267060   0.000000   0.000000
   27        4.734214      4.826576   0.000000   0.000000
   28        5.245903      5.302096   0.000000   0.000000
   29        5.293857      5.338804   0.000000   0.000000