       N       E                     dE             d eps       ncg     rms          ort
DAV:   1     0.113739462036E+03    0.11374E+03   -0.23534E+04  8960   0.259E+02
DAV:   2     0.260333375139E+02   -0.87706E+02   -0.87549E+02  8960   0.270E+01
DAV:   3     0.257152022644E+02   -0.31814E+00   -0.31813E+00  8960   0.255E+00
DAV:   4     0.257144668747E+02   -0.73539E-03   -0.73530E-03  8960   0.124E-01
DAV:   5     0.257144668685E+02   -0.61591E-08   -0.61812E-08  8960   0.388E-04
SDA:   6    -0.655337955131E+01   -0.32268E+02   -0.61812E-08  8960   0.763E+03 0.000E+00
CGA:   7    -0.394245025033E+02   -0.32871E+02   -0.71340E+02  8960   0.188E+02-0.500E+02
CGA:   8    -0.422262468233E+02   -0.28017E+01   -0.28024E+01  8960   0.234E+01 0.143E+00
CGA:   9    -0.429268972509E+02   -0.70065E+00   -0.66000E+00  8960   0.702E+00 0.351E+00
CGA:  10    -0.432538435441E+02   -0.32695E+00   -0.31873E+00  8960   0.338E+00 0.392E-01
CGA:  11    -0.433825411846E+02   -0.12870E+00   -0.12549E+00  8960   0.168E+00 0.212E-01
CGA:  12    -0.434452079087E+02   -0.62667E-01   -0.60217E-01  8960   0.491E-01 0.166E-01
CGA:  13    -0.434788538217E+02   -0.33646E-01   -0.33067E-01  8960   0.266E-01 0.169E-02
CGA:  14    -0.434914937192E+02   -0.12640E-01   -0.12453E-01  8960   0.189E-01 0.805E-03
CGA:  15    -0.434974845944E+02   -0.59909E-02   -0.59954E-02  8960   0.528E-02-0.452E-04
CGA:  16    -0.434995276997E+02   -0.20431E-02   -0.20438E-02  8960   0.163E-02-0.557E-05
CGA:  17    -0.435003828866E+02   -0.85519E-03   -0.85766E-03  8960   0.880E-03-0.894E-05
CGA:  18    -0.435006267487E+02   -0.24386E-03   -0.24389E-03  8960   0.276E-03-0.352E-05
CGA:  19    -0.435007360065E+02   -0.10926E-03   -0.10925E-03  8960   0.813E-04 0.761E-07
CGA:  20    -0.435007685989E+02   -0.32592E-04   -0.32576E-04  8960   0.275E-04 0.162E-06
CGA:  21    -0.435007785479E+02   -0.99490E-05   -0.99209E-05  8960   0.110E-04 0.379E-06
CGA:  22    -0.435007820055E+02   -0.34576E-05   -0.34558E-05  8960   0.316E-05 0.567E-07
CGA:  23    -0.435007834643E+02   -0.14588E-05   -0.14568E-05  8960   0.181E-05 0.334E-08
CGA:  24    -0.435007843400E+02   -0.87573E-06   -0.87211E-06  8960   0.132E-05 0.416E-08
   1 F= -.44579701E+02 E0= -.44579496E+02  d E =-.410251E-03  mag=     1.0000
