 vasp.5.4.4.18Apr17-6-g9f103f2a35 (build Aug 01 2018 12:10:22) complex          
  
 executed on        TETRALITH-B01 date 2021.12.21  21:14:33
 running on  160 total cores
 distrk:  each k-point on  160 cores,    1 groups
 distr:  one band on NCORES_PER_BAND=   1 cores,  160 groups


--------------------------------------------------------------------------------------------------------


 INCAR:
 POTCAR:    PAW_PBE Ga 08Apr2002                  
 POTCAR:    PAW_PBE Co 02Aug2007                  
 POTCAR:    PAW_PBE S 06Sep2000                   

 ----------------------------------------------------------------------------- 
|                                                                             |
|           W    W    AA    RRRRR   N    N  II  N    N   GGGG   !!!           |
|           W    W   A  A   R    R  NN   N  II  NN   N  G    G  !!!           |
|           W    W  A    A  R    R  N N  N  II  N N  N  G       !!!           |
|           W WW W  AAAAAA  RRRRR   N  N N  II  N  N N  G  GGG   !            |
|           WW  WW  A    A  R   R   N   NN  II  N   NN  G    G                |
|           W    W  A    A  R    R  N    N  II  N    N   GGGG   !!!           |
|                                                                             |
|      For optimal performance we recommend to set                            |
|        NCORE= 4 - approx SQRT( number of cores)                             |
|      NCORE specifies how many cores store one orbital (NPAR=cpu/NCORE).     |
|      This setting can  greatly improve the performance of VASP for DFT.     |
|      The default,   NCORE=1            might be grossly inefficient         |
|      on modern multi-core architectures or massively parallel machines.     |
|      Do your own testing !!!!                                               |
|      Unfortunately you need to use the default for GW and RPA calculations. |
|      (for HF NCORE is supported but not extensively tested yet)             |
|                                                                             |
 ----------------------------------------------------------------------------- 

 POTCAR:    PAW_PBE Ga 08Apr2002                  
   VRHFIN =Ga: s2p1                                                             
   LEXCH  = PE                                                                  
   EATOM  =    58.8688 eV,    4.3267 Ry                                         
                                                                                
   TITEL  = PAW_PBE Ga 08Apr2002                                                
   LULTRA =        F    use ultrasoft PP ?                                      
   IUNSCR =        1    unscreen: 0-lin 1-nonlin 2-no                           
   RPACOR =    2.170    partial core radius                                     
   POMASS =   69.723; ZVAL   =    3.000    mass and valenz                      
   RCORE  =    2.600    outmost cutoff radius                                   
   RWIGS  =    2.650; RWIGS  =    1.402    wigner-seitz radius (au A)           
   ENMAX  =  134.678; ENMIN  =  101.009 eV                                      
   ICORE  =        3    local potential                                         
   LCOR   =        T    correct aug charges                                     
   LPAW   =        T    paw PP                                                  
   EAUG   =  320.264                                                            
   DEXC   =    0.000                                                            
   RMAX   =    2.658    core radius for proj-oper                               
   RAUG   =    1.300    factor for augmentation sphere                          
   RDEP   =    2.684    radius for radial grids                                 
   RDEPT  =    2.308    core radius for aug-charge                              
                                                                                
   Atomic configuration                                                         
   10 entries                                                                   
     n  l   j            E        occ.                                          
     1  0  0.50    -10228.7830   2.0000                                         
     2  0  0.50     -1262.1604   2.0000                                         
     2  1  1.50     -1098.6333   6.0000                                         
     3  0  0.50      -148.1110   2.0000                                         
     3  1  1.50       -98.8436   6.0000                                         
     3  2  2.50       -19.1549  10.0000                                         
     4  0  0.50        -8.9483   2.0000                                         
     4  1  0.50        -2.5791   1.0000                                         
     4  2  1.50         5.4423   0.0000                                         
     4  3  2.50        -2.7416   0.0000                                         
   Description                                                                  
     l       E           TYP  RCUT    TYP  RCUT                                 
     0     -8.9483097     23  2.600                                             
     0     -5.8232215     23  2.600                                             
     1     -2.5790793     23  2.600                                             
     1      5.2230115     23  2.600                                             
     2      1.3605826     23  2.600                                             
     3     -1.3605826      7  2.600                                             
  local pseudopotential read in
  partial core-charges read in
  partial kinetic energy density read in
  atomic valenz-charges read in
  non local Contribution for L=           0  read in
    real space projection operators read in
  non local Contribution for L=           0  read in
    real space projection operators read in
  non local Contribution for L=           1  read in
    real space projection operators read in
  non local Contribution for L=           1  read in
    real space projection operators read in
  non local Contribution for L=           2  read in
    real space projection operators read in
    PAW grid and wavefunctions read in
 
   number of l-projection  operators is LMAX  =           5
   number of lm-projection operators is LMMAX =          13
 
 POTCAR:    PAW_PBE Co 02Aug2007                  
   VRHFIN =Co: d8 s1                                                            
   LEXCH  = PE                                                                  
   EATOM  =   813.3670 eV,   59.7808 Ry                                         
                                                                                
   TITEL  = PAW_PBE Co 02Aug2007                                                
   LULTRA =        F    use ultrasoft PP ?                                      
   IUNSCR =        1    unscreen: 0-lin 1-nonlin 2-no                           
   RPACOR =    2.000    partial core radius                                     
   POMASS =   58.933; ZVAL   =    9.000    mass and valenz                      
   RCORE  =    2.300    outmost cutoff radius                                   
   RWIGS  =    2.460; RWIGS  =    1.302    wigner-seitz radius (au A)           
   ENMAX  =  267.968; ENMIN  =  200.976 eV                                      
   RCLOC  =    1.203    cutoff for local pot                                    
   LCOR   =        T    correct aug charges                                     
   LPAW   =        T    paw PP                                                  
   EAUG   =  477.818                                                            
   DEXC   =    0.000                                                            
   RMAX   =    2.360    core radius for proj-oper                               
   RAUG   =    1.300    factor for augmentation sphere                          
   RDEP   =    2.393    radius for radial grids                                 
   RDEPT  =    1.864    core radius for aug-charge                              
                                                                                
   Atomic configuration                                                         
    9 entries                                                                   
     n  l   j            E        occ.                                          
     1  0  0.50     -7587.6674   2.0000                                         
     2  0  0.50      -893.6084   2.0000                                         
     2  1  1.50      -764.5805   6.0000                                         
     3  0  0.50       -97.5973   2.0000                                         
     3  1  1.50       -60.9648   6.0000                                         
     3  2  2.50        -4.2382   8.0000                                         
     4  0  0.50        -4.3746   1.0000                                         
     4  1  1.50        -4.0817   0.0000                                         
     4  3  2.50        -1.3606   0.0000                                         
   Description                                                                  
     l       E           TYP  RCUT    TYP  RCUT                                 
     2     -4.2382362     23  2.300                                             
     2     -5.5988188     23  2.300                                             
     0     -4.3745797     23  2.300                                             
     0      5.7660125     23  2.300                                             
     1     -2.7211652     23  2.300                                             
     1     16.9860234     23  2.300                                             
  local pseudopotential read in
  partial core-charges read in
  partial kinetic energy density read in
  atomic valenz-charges read in
  non local Contribution for L=           2  read in
    real space projection operators read in
  non local Contribution for L=           2  read in
    real space projection operators read in
  non local Contribution for L=           0  read in
    real space projection operators read in
  non local Contribution for L=           0  read in
    real space projection operators read in
  non local Contribution for L=           1  read in
    real space projection operators read in
  non local Contribution for L=           1  read in
    real space projection operators read in
    PAW grid and wavefunctions read in
 
   number of l-projection  operators is LMAX  =           6
   number of lm-projection operators is LMMAX =          18
 
 POTCAR:    PAW_PBE S 06Sep2000                   
   VRHFIN =S : s2p4                                                             
   LEXCH  = PE                                                                  
   EATOM  =   276.8230 eV,   20.3459 Ry                                         
                                                                                
   TITEL  = PAW_PBE S 06Sep2000                                                 
   LULTRA =        F    use ultrasoft PP ?                                      
   IUNSCR =        1    unscreen: 0-lin 1-nonlin 2-no                           
   RPACOR =    1.500    partial core radius                                     
   POMASS =   32.066; ZVAL   =    6.000    mass and valenz                      
   RCORE  =    1.900    outmost cutoff radius                                   
   RWIGS  =    2.200; RWIGS  =    1.164    wigner-seitz radius (au A)           
   ENMAX  =  258.689; ENMIN  =  194.016 eV                                      
   ICORE  =        2    local potential                                         
   LCOR   =        T    correct aug charges                                     
   LPAW   =        T    paw PP                                                  
   EAUG   =  335.092                                                            
   DEXC   =    0.000                                                            
   RMAX   =    1.942    core radius for proj-oper                               
   RAUG   =    1.300    factor for augmentation sphere                          
   RDEP   =    1.954    radius for radial grids                                 
   RDEPT  =    1.744    core radius for aug-charge                              
                                                                                
   Atomic configuration                                                         
    6 entries                                                                   
     n  l   j            E        occ.                                          
     1  0  0.50     -2405.8406   2.0000                                         
     2  0  0.50      -211.7007   2.0000                                         
     2  1  1.50      -156.4958   6.0000                                         
     3  0  0.50       -17.2562   2.0000                                         
     3  1  0.50        -7.0085   4.0000                                         
     3  2  1.50        -6.8029   0.0000                                         
   Description                                                                  
     l       E           TYP  RCUT    TYP  RCUT                                 
     0    -17.2561641     23  1.900                                             
     0    -15.8743224     23  1.900                                             
     1     -7.0085400     23  1.900                                             
     1     -2.7779785     23  1.900                                             
     2     -6.8029130     23  1.900                                             
  local pseudopotential read in
  partial core-charges read in
  partial kinetic energy density read in
  atomic valenz-charges read in
  non local Contribution for L=           0  read in
    real space projection operators read in
  non local Contribution for L=           0  read in
    real space projection operators read in
  non local Contribution for L=           1  read in
    real space projection operators read in
  non local Contribution for L=           1  read in
    real space projection operators read in
    PAW grid and wavefunctions read in
 
   number of l-projection  operators is LMAX  =           4
   number of lm-projection operators is LMMAX =           8
 

 ----------------------------------------------------------------------------- 
|                                                                             |
|  ADVICE TO THIS USER RUNNING 'VASP/VAMP'   (HEAR YOUR MASTER'S VOICE ...):  |
|                                                                             |
|      You enforced a specific xc-type in the INCAR file,                     |
|      a different type was found on the POTCAR file                          |
|          I HOPE YOU KNOW, WHAT YOU ARE  DOING                               |
|                                                                             |
 ----------------------------------------------------------------------------- 

  PAW_PBE Ga 08Apr2002                  :
 energy of atom  1       EATOM=  -58.8688
 kinetic energy error for atom=    0.0000 (will be added to EATOM!!)
  PAW_PBE Co 02Aug2007                  :
 energy of atom  2       EATOM= -813.3670
 kinetic energy error for atom=    0.0028 (will be added to EATOM!!)
  PAW_PBE S 06Sep2000                   :
 energy of atom  3       EATOM= -276.8230
 kinetic energy error for atom=    0.0016 (will be added to EATOM!!)
 
 
 POSCAR: Ga2 Co1 S4                              
  positions in direct lattice
  velocities in cartesian coordinates
 exchange correlation table for  LEXCH =       14
   RHO(1)=    0.500       N(1)  =     2000
   RHO(2)=  100.500       N(2)  =     4000
 


--------------------------------------------------------------------------------------------------------


 ion  position               nearest neighbor table
   1  0.333  0.667  0.615-   5 2.26   6 2.33   6 2.33   6 2.33
   2  0.667  0.333  0.385-   4 2.26   7 2.33   7 2.33   7 2.33
   3  0.000  0.000  0.500-   4 2.31   5 2.31   4 2.31   5 2.31   4 2.31   5 2.31
   4  0.667  0.333  0.464-   2 2.26   3 2.31   3 2.31   3 2.31
   5  0.333  0.667  0.536-   1 2.26   3 2.31   3 2.31   3 2.31
   6  0.667  0.333  0.653-   1 2.33   1 2.33   1 2.33
   7  0.333  0.667  0.347-   2 2.33   2 2.33   2 2.33
 
  LATTYP: Found a hexagonal cell.
 ALAT       =     3.5601458298
 C/A-ratio  =     8.1088147452
  
  Lattice vectors:
  
 A1 = (   3.5601451665,   0.0000000000,   0.0000000000)
 A2 = (  -1.7800725832,   3.0831769213,   0.0000000000)
 A3 = (   0.0000000000,   0.0000000000,  28.8685630000)


Analysis of symmetry for initial positions (statically):
=====================================================================
 Subroutine PRICEL returns:
 Original cell was already a primitive cell.
 

 Routine SETGRP: Setting up the symmetry group for a 
 hexagonal supercell.


 Subroutine GETGRP returns: Found 12 space group operations
 (whereof 12 operations were pure point group operations)
 out of a pool of 24 trial point group operations.


The static configuration has the point symmetry D_3d.


Analysis of symmetry for dynamics (positions and initial velocities):
=====================================================================
 Subroutine PRICEL returns:
 Original cell was already a primitive cell.
 

 Routine SETGRP: Setting up the symmetry group for a 
 hexagonal supercell.


 Subroutine GETGRP returns: Found 12 space group operations
 (whereof 12 operations were pure point group operations)
 out of a pool of 24 trial point group operations.


The dynamic configuration has the point symmetry D_3d.


Analysis of structural, dynamic, and magnetic symmetry:
=====================================================================
 Subroutine PRICEL returns:
 Original cell was already a primitive cell.
 

 Routine SETGRP: Setting up the symmetry group for a 
 hexagonal supercell.


 Subroutine GETGRP returns: Found 12 space group operations
 (whereof 12 operations were pure point group operations)
 out of a pool of 24 trial point group operations.


The magnetic configuration has the point symmetry D_3d.


 Subroutine INISYM returns: Found 12 space group operations
 (whereof 12 operations are pure point group operations),
 and found     1 'primitive' translations

 
 
 KPOINTS: 0.040   9   9   1   12  0.060   44    3 
  k-points in reciprocal lattice
Space group operators:
 irot       det(A)        alpha          n_x          n_y          n_z        tau_x        tau_y        tau_z
    1     1.000000     0.000000     1.000000     0.000000     0.000000     0.000000     0.000000     0.000000
    2    -1.000000     0.000000     1.000000     0.000000     0.000000     0.000000     0.000000     0.000000
    3     1.000000   120.000000     0.000000     0.000000    -1.000000     0.000000     0.000000     0.000000
    4    -1.000000   120.000000     0.000000     0.000000    -1.000000     0.000000     0.000000     0.000000
    5     1.000000   120.000000     0.000000     0.000000     1.000000     0.000000     0.000000     0.000000
    6    -1.000000   120.000000     0.000000     0.000000     1.000000     0.000000     0.000000     0.000000
    7     1.000000   180.000000     1.000000    -0.000000     0.000000     0.000000     0.000000     0.000000
    8    -1.000000   180.000000     1.000000    -0.000000     0.000000     0.000000     0.000000     0.000000
    9     1.000000   180.000000     0.500000    -0.866025     0.000000     0.000000     0.000000     0.000000
   10    -1.000000   180.000000     0.500000    -0.866025     0.000000     0.000000     0.000000     0.000000
   11     1.000000   180.000000    -0.500000    -0.866025     0.000000     0.000000     0.000000     0.000000
   12    -1.000000   180.000000    -0.500000    -0.866025     0.000000     0.000000     0.000000     0.000000

 ----------------------------------------------------------------------------- 
|                                                                             |
|           W    W    AA    RRRRR   N    N  II  N    N   GGGG   !!!           |
|           W    W   A  A   R    R  NN   N  II  NN   N  G    G  !!!           |
|           W    W  A    A  R    R  N N  N  II  N N  N  G       !!!           |
|           W WW W  AAAAAA  RRRRR   N  N N  II  N  N N  G  GGG   !            |
|           WW  WW  A    A  R   R   N   NN  II  N   NN  G    G                |
|           W    W  A    A  R    R  N    N  II  N    N   GGGG   !!!           |
|                                                                             |
|      Your generating k-point grid is not commensurate to the symmetry       |
|      of the lattice.  This can cause   slow convergence with respect        |
|      to k-points for HF type calculations                                   |
|      suggested SOLUTIONS:                                                   |
|       ) if not already the case, use automatic k-point generation           |
|       ) shift your grid to Gamma (G) (e.g. required for hex or fcc lattice) |
|                                                                             |
 ----------------------------------------------------------------------------- 

 
 Subroutine IBZKPT_HF returns following result:
 ==============================================
 
 Found    125 k-points in 1st BZ
 the following    125 k-points will be used (e.g. in the exchange kernel)
 Following reciprocal coordinates:   # in IRBZ
  0.000000  0.000000  0.000000    0.01234568   1 t-inv F
  0.111111  0.000000  0.000000    0.01234568   2 t-inv F
  0.222222  0.000000  0.000000    0.01234568   3 t-inv F
  0.333333  0.000000  0.000000    0.01234568   4 t-inv F
  0.444444  0.000000  0.000000    0.01234568   5 t-inv F
  0.111111  0.111111  0.000000    0.01234568   6 t-inv F
  0.222222  0.111111  0.000000    0.01234568   7 t-inv F
  0.333333  0.111111  0.000000    0.01234568   8 t-inv F
  0.444444  0.111111  0.000000    0.01234568   9 t-inv F
  0.222222  0.222222  0.000000    0.01234568  10 t-inv F
  0.333333  0.222222  0.000000    0.01234568  11 t-inv F
  0.333333  0.333333  0.000000    0.01234568  12 t-inv F
  0.500000  0.000000  0.000000    0.00000000  13 t-inv F
  0.479167  0.041667  0.000000    0.00000000  14 t-inv F
  0.458333  0.083333  0.000000    0.00000000  15 t-inv F
  0.437500  0.125000  0.000000    0.00000000  16 t-inv F
  0.416667  0.166667  0.000000    0.00000000  17 t-inv F
  0.395833  0.208333  0.000000    0.00000000  18 t-inv F
  0.375000  0.250000  0.000000    0.00000000  19 t-inv F
  0.354167  0.291667  0.000000    0.00000000  20 t-inv F
  0.333333  0.333333  0.000000    0.00000000  21 t-inv F
  0.333333  0.333333  0.000000    0.00000000  22 t-inv F
  0.314815  0.314815  0.000000    0.00000000  23 t-inv F
  0.296296  0.296296  0.000000    0.00000000  24 t-inv F
  0.277778  0.277778  0.000000    0.00000000  25 t-inv F
  0.259259  0.259259  0.000000    0.00000000  26 t-inv F
  0.240741  0.240741  0.000000    0.00000000  27 t-inv F
  0.222222  0.222222  0.000000    0.00000000  28 t-inv F
  0.203704  0.203704  0.000000    0.00000000  29 t-inv F
  0.185185  0.185185  0.000000    0.00000000  30 t-inv F
  0.166667  0.166667  0.000000    0.00000000  31 t-inv F
  0.148148  0.148148  0.000000    0.00000000  32 t-inv F
  0.129630  0.129630  0.000000    0.00000000  33 t-inv F
  0.111111  0.111111  0.000000    0.00000000  34 t-inv F
  0.092593  0.092593  0.000000    0.00000000  35 t-inv F
  0.074074  0.074074  0.000000    0.00000000  36 t-inv F
  0.055556  0.055556  0.000000    0.00000000  37 t-inv F
  0.037037  0.037037  0.000000    0.00000000  38 t-inv F
  0.018519  0.018519  0.000000    0.00000000  39 t-inv F
  0.000000  0.000000  0.000000    0.00000000  40 t-inv F
  0.000000  0.000000  0.000000    0.00000000  41 t-inv F
  0.033333  0.000000  0.000000    0.00000000  42 t-inv F
  0.066667  0.000000  0.000000    0.00000000  43 t-inv F
  0.100000  0.000000  0.000000    0.00000000  44 t-inv F
  0.133333  0.000000  0.000000    0.00000000  45 t-inv F
  0.166667  0.000000  0.000000    0.00000000  46 t-inv F
  0.200000  0.000000  0.000000    0.00000000  47 t-inv F
  0.233333  0.000000  0.000000    0.00000000  48 t-inv F
  0.266667  0.000000  0.000000    0.00000000  49 t-inv F
  0.300000  0.000000  0.000000    0.00000000  50 t-inv F
  0.333333  0.000000  0.000000    0.00000000  51 t-inv F
  0.366667  0.000000  0.000000    0.00000000  52 t-inv F
  0.400000  0.000000  0.000000    0.00000000  53 t-inv F
  0.433333  0.000000  0.000000    0.00000000  54 t-inv F
  0.466667  0.000000  0.000000    0.00000000  55 t-inv F
  0.500000  0.000000  0.000000    0.00000000  56 t-inv F
 -0.111111  0.000000  0.000000    0.01234568   2 t-inv F
 -0.111111  0.111111  0.000000    0.01234568   2 t-inv F
  0.111111 -0.111111  0.000000    0.01234568   2 t-inv F
  0.000000 -0.111111  0.000000    0.01234568   2 t-inv F
  0.000000  0.111111  0.000000    0.01234568   2 t-inv F
 -0.222222  0.000000  0.000000    0.01234568   3 t-inv F
 -0.222222  0.222222  0.000000    0.01234568   3 t-inv F
  0.222222 -0.222222  0.000000    0.01234568   3 t-inv F
  0.000000 -0.222222  0.000000    0.01234568   3 t-inv F
  0.000000  0.222222  0.000000    0.01234568   3 t-inv F
 -0.333333  0.000000  0.000000    0.01234568   4 t-inv F
 -0.333333  0.333333  0.000000    0.01234568   4 t-inv F
  0.333333 -0.333333  0.000000    0.01234568   4 t-inv F
  0.000000 -0.333333  0.000000    0.01234568   4 t-inv F
  0.000000  0.333333  0.000000    0.01234568   4 t-inv F
 -0.444444  0.000000  0.000000    0.01234568   5 t-inv F
 -0.444444  0.444444  0.000000    0.01234568   5 t-inv F
  0.444444 -0.444444  0.000000    0.01234568   5 t-inv F
  0.000000 -0.444444  0.000000    0.01234568   5 t-inv F
  0.000000  0.444444  0.000000    0.01234568   5 t-inv F
 -0.111111 -0.111111  0.000000    0.01234568   6 t-inv F
 -0.222222  0.111111  0.000000    0.01234568   6 t-inv F
  0.222222 -0.111111  0.000000    0.01234568   6 t-inv F
  0.111111 -0.222222  0.000000    0.01234568   6 t-inv F
 -0.111111  0.222222  0.000000    0.01234568   6 t-inv F
 -0.222222 -0.111111  0.000000    0.01234568   7 t-inv F
 -0.333333  0.222222  0.000000    0.01234568   7 t-inv F
  0.333333 -0.222222  0.000000    0.01234568   7 t-inv F
  0.111111 -0.333333  0.000000    0.01234568   7 t-inv F
 -0.111111  0.333333  0.000000    0.01234568   7 t-inv F
  0.222222 -0.333333  0.000000    0.01234568   7 t-inv F
 -0.222222  0.333333  0.000000    0.01234568   7 t-inv F
 -0.333333  0.111111  0.000000    0.01234568   7 t-inv F
  0.333333 -0.111111  0.000000    0.01234568   7 t-inv F
  0.111111  0.222222  0.000000    0.01234568   7 t-inv F
 -0.111111 -0.222222  0.000000    0.01234568   7 t-inv F
 -0.333333 -0.111111  0.000000    0.01234568   8 t-inv F
 -0.444444  0.333333  0.000000    0.01234568   8 t-inv F
  0.444444 -0.333333  0.000000    0.01234568   8 t-inv F
  0.111111 -0.444444  0.000000    0.01234568   8 t-inv F
 -0.111111  0.444444  0.000000    0.01234568   8 t-inv F
  0.333333 -0.444444  0.000000    0.01234568   8 t-inv F
 -0.333333  0.444444  0.000000    0.01234568   8 t-inv F
 -0.444444  0.111111  0.000000    0.01234568   8 t-inv F
  0.444444 -0.111111  0.000000    0.01234568   8 t-inv F
  0.111111  0.333333  0.000000    0.01234568   8 t-inv F
 -0.111111 -0.333333  0.000000    0.01234568   8 t-inv F
 -0.444444 -0.111111  0.000000    0.01234568   9 t-inv F
 -0.555556  0.444444  0.000000    0.01234568   9 t-inv F
  0.555556 -0.444444  0.000000    0.01234568   9 t-inv F
  0.111111 -0.555556  0.000000    0.01234568   9 t-inv F
 -0.111111  0.555556  0.000000    0.01234568   9 t-inv F
 -0.222222 -0.222222  0.000000    0.01234568  10 t-inv F
 -0.444444  0.222222  0.000000    0.01234568  10 t-inv F
  0.444444 -0.222222  0.000000    0.01234568  10 t-inv F
  0.222222 -0.444444  0.000000    0.01234568  10 t-inv F
 -0.222222  0.444444  0.000000    0.01234568  10 t-inv F
 -0.333333 -0.222222  0.000000    0.01234568  11 t-inv F
 -0.555556  0.333333  0.000000    0.01234568  11 t-inv F
  0.555556 -0.333333  0.000000    0.01234568  11 t-inv F
  0.222222 -0.555556  0.000000    0.01234568  11 t-inv F
 -0.222222  0.555556  0.000000    0.01234568  11 t-inv F
  0.333333 -0.555556  0.000000    0.01234568  11 t-inv F
 -0.333333  0.555556  0.000000    0.01234568  11 t-inv F
 -0.555556  0.222222  0.000000    0.01234568  11 t-inv F
  0.555556 -0.222222  0.000000    0.01234568  11 t-inv F
  0.222222  0.333333  0.000000    0.01234568  11 t-inv F
 -0.222222 -0.333333  0.000000    0.01234568  11 t-inv F
 -0.333333 -0.333333  0.000000    0.01234568  12 t-inv F


--------------------------------------------------------------------------------------------------------




 Dimension of arrays:
   k-points           NKPTS =     56   k-points in BZ     NKDIM =    125   number of bands    NBANDS=    160
   number of dos      NEDOS =   3501   number of ions     NIONS =      7
   non local maximal  LDIM  =      6   non local SUM 2l+1 LMDIM =     18
   total plane-waves  NPLWV =  64800
   max r-space proj   IRMAX =      1   max aug-charges    IRDMAX=  14895
   dimension x,y,z NGX =    20 NGY =   20 NGZ =  162
   dimension x,y,z NGXF=    40 NGYF=   40 NGZF=  324
   support grid    NGXF=    40 NGYF=   40 NGZF=  324
   ions per type =               2   1   4
   NGX,Y,Z   is equivalent  to a cutoff of   9.34,  9.34,  9.33 a.u.
   NGXF,Y,Z  is equivalent  to a cutoff of  18.68, 18.68, 18.66 a.u.

 SYSTEM =  unknown system                          
 POSCAR =  Ga2 Co1 S4                              

 Startparameter for this run:
   NWRITE =      2    write-flag & timer
   PREC   = normal    normal or accurate (medium, high low for compatibility)
   ISTART =      0    job   : 0-new  1-cont  2-samecut
   ICHARG =      2    charge: 1-file 2-atom 10-const
   ISPIN  =      2    spin polarized calculation?
   LNONCOLLINEAR =      F non collinear calculations
   LSORBIT =      F    spin-orbit coupling
   INIWAV =      1    electr: 0-lowe 1-rand  2-diag
   LASPH  =      F    aspherical Exc in radial PAW
   METAGGA=      F    non-selfconsistent MetaGGA calc.

 Electronic Relaxation 1
   ENCUT  =  520.0 eV  38.22 Ry    6.18 a.u.   6.62  6.62 53.68*2*pi/ulx,y,z
   ENINI  =  520.0     initial cutoff
   ENAUG  =  477.8 eV  augmentation charge cutoff
   NELM   =     40;   NELMIN=  6; NELMDL=  0     # of ELM steps 
   EDIFF  = 0.1E-05   stopping-criterion for ELM
   LREAL  =      F    real-space projection
   NLSPLINE    = F    spline interpolate recip. space projectors
   LCOMPAT=      F    compatible to vasp.4.4
   GGA_COMPAT  = T    GGA compatible to vasp.4.4-vasp.4.6
   LMAXPAW     = -100 max onsite density
   LMAXMIX     =    2 max onsite mixed and CHGCAR
   VOSKOWN=      0    Vosko Wilk Nusair interpolation
   ROPT   =    0.00000   0.00000   0.00000
 Ionic relaxation
   EDIFFG = -.1E-01   stopping-criterion for IOM
   NSW    =      0    number of steps for IOM
   NBLOCK =      1;   KBLOCK =      1    inner block; outer block 
   IBRION =     -1    ionic relax: 0-MD 1-quasi-New 2-CG
   NFREE  =      0    steps in history (QN), initial steepest desc. (CG)
   ISIF   =      3    stress and relaxation
   IWAVPR =     10    prediction:  0-non 1-charg 2-wave 3-comb
   ISYM   =      3    0-nonsym 1-usesym 2-fastsym
   LCORR  =      T    Harris-Foulkes like correction to forces

   POTIM  = 0.5000    time-step for ionic-motion
   TEIN   =    0.0    initial temperature
   TEBEG  =    0.0;   TEEND  =   0.0 temperature during run
   SMASS  =  -3.00    Nose mass-parameter (am)
   estimated Nose-frequenzy (Omega)   =  0.10E-29 period in steps =****** mass=  -0.290E-27a.u.
   SCALEE = 1.0000    scale energy and forces
   NPACO  =    256;   APACO  = 16.0  distance and # of slots for P.C.
   PSTRESS=    0.0 pullay stress

  Mass of Ions in am
   POMASS =  69.72 58.93 32.07
  Ionic Valenz
   ZVAL   =   3.00  9.00  6.00
  Atomic Wigner-Seitz radii
   RWIGS  =  -1.00 -1.00 -1.00
  virtual crystal weights 
   VCA    =   1.00  1.00  1.00
   NELECT =      39.0000    total number of electrons
   NUPDOWN=      -1.0000    fix difference up-down

 DOS related values:
   EMIN   =  10.00;   EMAX   =-10.00  energy-range for DOS
   EFERMI =   0.00
   ISMEAR =     0;   SIGMA  =   0.02  broadening in eV -4-tet -1-fermi 0-gaus

 Electronic relaxation 2 (details)
   IALGO  =     58    algorithm
   LDIAG  =      T    sub-space diagonalisation (order eigenvalues)
   LSUBROT=      F    optimize rotation matrix (better conditioning)
   TURBO    =      0    0=normal 1=particle mesh
   IRESTART =      0    0=no restart 2=restart with 2 vectors
   NREBOOT  =      0    no. of reboots
   NMIN     =      0    reboot dimension
   EREF     =   0.00    reference energy to select bands
   IMIX   =      4    mixing-type and parameters
     AMIX     =   0.40;   BMIX     =  1.00
     AMIX_MAG =   1.60;   BMIX_MAG =  1.00
     AMIN     =   0.10
     WC   =   100.;   INIMIX=   1;  MIXPRE=   1;  MAXMIX= -45

 Intra band minimization:
   WEIMIN = 0.0000     energy-eigenvalue tresh-hold
   EBREAK =  0.16E-08  absolut break condition
   DEPER  =   0.30     relativ break condition  

   TIME   =   0.40     timestep for ELM

  volume/ion in A,a.u.               =      45.27       305.48
  Fermi-wavevector in a.u.,A,eV,Ry     =   0.814328  1.538856  9.022428  0.663130
  Thomas-Fermi vector in A             =   1.924215
 
 Write flags
   LWAVE        =      F    write WAVECAR
   LDOWNSAMPLE  =      F    k-point downsampling of WAVECAR
   LCHARG       =      F    write CHGCAR
   LVTOT        =      F    write LOCPOT, total local potential
   LVHAR        =      F    write LOCPOT, Hartree potential only
   LELF         =      F    write electronic localiz. function (ELF)
   LORBIT       =     11    0 simple, 1 ext, 2 COOP (PROOUT), +10 PAW based schemes


 Dipole corrections
   LMONO  =      F    monopole corrections only (constant potential shift)
   LDIPOL =      F    correct potential (dipole corrections)
   IDIPOL =      0    1-x, 2-y, 3-z, 4-all directions 
   EPSILON=  1.0000000 bulk dielectric constant

 Exchange correlation treatment:
   GGA     =    PS    GGA type
   LEXCH   =    14    internal setting for exchange type
   VOSKOWN=      0    Vosko Wilk Nusair interpolation
   EXXOEP  =     0    0=HF, 1=EXX-LHF (local Hartree Fock) 2=EXX OEP
   LHFCALC =     T    Hartree Fock is set to
   LSYMGRAD=     F    symmetrize gradient (conserves proper symmetry)
   PRECFOCK=normal    Normal, Fast or Accurate (Low or Medium for compatibility)
   LRHFCALC=     F    long range Hartree Fock
   LRSCOR  =     F    long range correlation only (use DFT for short range part)
   LTHOMAS =     F    Thomas Fermi screening in HF
   LMODELHF=     F    short range full HF, long range fraction AEXX
   ENCUT4O =  -1.0   cutoff for four orbital integrals eV
   LMAXFOCK=     4    L truncation for augmentation on plane wave grid
   LMAXFOCKAE=  -1    L truncation for all-electron charge restoration on plane wave grid
   NMAXFOCKAE=   1    number of basis functions for all-electron charge restoration
   LFOCKAEDFT=     F  apply the AE augmentation even for DFT
   NKREDX  =     1    reduce k-point grid by
   NKREDY  =     1    reduce k-point grid by
   NKREDZ  =     1    reduce k-point grid by
   SHIFTRED=     F    shift reduced grid of Gamma
   HFKIDENT=     F    idential grid for each k-point
   ODDONLY =     F    use only odd q-grid points
   EVENONLY=     F    use only even q-grid points
   HFALPHA =   -1.0000 decay constant for conv. correction
   MCALPHA =    0.0000 extent of test-charge in conv. correction in multipole expansion
   AEXX    =    0.2500 exact exchange contribution
   HFSCREEN=    0.2000 screening length (either q_TF or 0.3 A-1)
   HFSCREENC=   0.2000 screening length for correlation (either q_TF or 0.3 A-1)
   HFRCUT  =    0.0000 spherical cutoff for potential kernel
   ALDAX   =    0.7500 LDA exchange part
   AGGAX   =    0.7500 GGA exchange part
   ALDAC   =    1.0000 LDA correlation
   AGGAC   =    1.0000 GGA correlation
   ENCUTFOCK=  -1.0 apply spherical cutoff to Coloumb kernel
   NBANDSGWLOW=     1    first orbital included in HF term
   NBLOCK_FOCK=    64    blocking factor in FOCK_ACC
 Linear response parameters
   LEPSILON=     F    determine dielectric tensor
   LRPA    =     F    only Hartree local field effects (RPA)
   LNABLA  =     F    use nabla operator in PAW spheres
   LVEL    =     F    velocity operator in full k-point grid
   LINTERFAST=   F  fast interpolation
   KINTER  =     0    interpolate to denser k-point grid
   CSHIFT  =0.1000    complex shift for real part using Kramers Kronig
   OMEGAMAX=  -1.0    maximum frequency
   DEG_THRESHOLD= 0.2000000E-02 threshold for treating states as degnerate
   RTIME   =   -0.100 relaxation time in fs
  (WPLASMAI=    0.000 imaginary part of plasma frequency in eV, 0.658/RTIME)
   DFIELD  = 0.0000000 0.0000000 0.0000000 field for delta impulse in time
 
 Orbital magnetization related:
   ORBITALMAG=     F  switch on orbital magnetization
   LCHIMAG   =     F  perturbation theory with respect to B field
   DQ        =  0.001000  dq finite difference perturbation B field
   LLRAUG    =     F  two centre corrections for induced B field



--------------------------------------------------------------------------------------------------------


 Static calculation
 charge density and potential will be updated during run
 spin polarized calculation
 Conjugate gradient for all bands (Freysoldt, et al. PRB 79, 241103 (2009))
 preconditioned conjugated gradient                                        
 perform sub-space diagonalisation
    before iterative eigenvector-optimisation
 modified Broyden-mixing scheme, WC =      100.0
 initial mixing is a Kerker type mixing with AMIX =  0.4000 and BMIX =      1.0000
 Hartree-type preconditioning will be used
 using additional bands          140
 reciprocal scheme for non local part
 use partial core corrections
 no Harris-corrections to forces 
 use gradient corrections 
 use of overlap-Matrix (Vanderbilt PP)
 Gauss-broadening in eV      SIGMA  =   0.02


--------------------------------------------------------------------------------------------------------


  energy-cutoff  :      520.00
  volume of cell :      316.88
      direct lattice vectors                 reciprocal lattice vectors
     3.560145166  0.000000000  0.000000000     0.280887423  0.162170389  0.000000000
    -1.780072583  3.083176921  0.000000000     0.000000000  0.324340778  0.000000000
     0.000000000  0.000000000 28.868563000     0.000000000  0.000000000  0.034639757

  length of vectors
     3.560145166  3.560145830 28.868563000     0.324340838  0.324340778  0.034639757


 
 k-points in units of 2pi/SCALE and weight: 0.040   9   9   1   12  0.060   44    3 
   0.00000000  0.00000000  0.00000000       0.012
   0.03120971  0.01801893  0.00000000       0.074
   0.06241943  0.03603786  0.00000000       0.074
   0.09362914  0.05405680  0.00000000       0.074
   0.12483885  0.07207573  0.00000000       0.074
   0.03120971  0.05405680  0.00000000       0.074
   0.06241943  0.07207573  0.00000000       0.148
   0.09362914  0.09009466  0.00000000       0.148
   0.12483885  0.10811359  0.00000000       0.074
   0.06241943  0.10811359  0.00000000       0.074
   0.09362914  0.12613252  0.00000000       0.148
   0.09362914  0.16217039  0.00000000       0.025
   0.14044371  0.08108519  0.00000000       0.000
   0.13459189  0.09122084  0.00000000       0.000
   0.12874007  0.10135649  0.00000000       0.000
   0.12288825  0.11149214  0.00000000       0.000
   0.11703643  0.12162779  0.00000000       0.000
   0.11118460  0.13176344  0.00000000       0.000
   0.10533278  0.14189909  0.00000000       0.000
   0.09948096  0.15203474  0.00000000       0.000
   0.09362914  0.16217039  0.00000000       0.000
   0.09362914  0.16217039  0.00000000       0.000
   0.08842752  0.15316092  0.00000000       0.000
   0.08322590  0.14415146  0.00000000       0.000
   0.07802428  0.13514199  0.00000000       0.000
   0.07282267  0.12613252  0.00000000       0.000
   0.06762105  0.11712306  0.00000000       0.000
   0.06241943  0.10811359  0.00000000       0.000
   0.05721781  0.09910413  0.00000000       0.000
   0.05201619  0.09009466  0.00000000       0.000
   0.04681457  0.08108519  0.00000000       0.000
   0.04161295  0.07207573  0.00000000       0.000
   0.03641133  0.06306626  0.00000000       0.000
   0.03120971  0.05405680  0.00000000       0.000
   0.02600809  0.04504733  0.00000000       0.000
   0.02080648  0.03603786  0.00000000       0.000
   0.01560486  0.02702840  0.00000000       0.000
   0.01040324  0.01801893  0.00000000       0.000
   0.00520162  0.00900947  0.00000000       0.000
   0.00000000  0.00000000  0.00000000       0.000
   0.00000000  0.00000000  0.00000000       0.000
   0.00936291  0.00540568  0.00000000       0.000
   0.01872583  0.01081136  0.00000000       0.000
   0.02808874  0.01621704  0.00000000       0.000
   0.03745166  0.02162272  0.00000000       0.000
   0.04681457  0.02702840  0.00000000       0.000
   0.05617748  0.03243408  0.00000000       0.000
   0.06554040  0.03783976  0.00000000       0.000
   0.07490331  0.04324544  0.00000000       0.000
   0.08426623  0.04865112  0.00000000       0.000
   0.09362914  0.05405680  0.00000000       0.000
   0.10299205  0.05946248  0.00000000       0.000
   0.11235497  0.06486816  0.00000000       0.000
   0.12171788  0.07027384  0.00000000       0.000
   0.13108080  0.07567951  0.00000000       0.000
   0.14044371  0.08108519  0.00000000       0.000
 
 k-points in reciprocal lattice and weights: 0.040   9   9   1   12  0.060   44    3 
   0.00000000  0.00000000  0.00000000       0.012
   0.11111111  0.00000000  0.00000000       0.074
   0.22222222  0.00000000  0.00000000       0.074
   0.33333333  0.00000000  0.00000000       0.074
   0.44444444  0.00000000  0.00000000       0.074
   0.11111111  0.11111111  0.00000000       0.074
   0.22222222  0.11111111  0.00000000       0.148
   0.33333333  0.11111111  0.00000000       0.148
   0.44444444  0.11111111  0.00000000       0.074
   0.22222222  0.22222222  0.00000000       0.074
   0.33333333  0.22222222  0.00000000       0.148
   0.33333333  0.33333333  0.00000000       0.025
   0.50000000  0.00000000  0.00000000       0.000
   0.47916667  0.04166667  0.00000000       0.000
   0.45833333  0.08333333  0.00000000       0.000
   0.43750000  0.12500000  0.00000000       0.000
   0.41666667  0.16666667  0.00000000       0.000
   0.39583333  0.20833333  0.00000000       0.000
   0.37500000  0.25000000  0.00000000       0.000
   0.35416667  0.29166667  0.00000000       0.000
   0.33333333  0.33333333  0.00000000       0.000
   0.33333333  0.33333333  0.00000000       0.000
   0.31481481  0.31481481  0.00000000       0.000
   0.29629630  0.29629630  0.00000000       0.000
   0.27777778  0.27777778  0.00000000       0.000
   0.25925926  0.25925926  0.00000000       0.000
   0.24074074  0.24074074  0.00000000       0.000
   0.22222222  0.22222222  0.00000000       0.000
   0.20370370  0.20370370  0.00000000       0.000
   0.18518519  0.18518519  0.00000000       0.000
   0.16666667  0.16666667  0.00000000       0.000
   0.14814815  0.14814815  0.00000000       0.000
   0.12962963  0.12962963  0.00000000       0.000
   0.11111111  0.11111111  0.00000000       0.000
   0.09259259  0.09259259  0.00000000       0.000
   0.07407407  0.07407407  0.00000000       0.000
   0.05555556  0.05555556  0.00000000       0.000
   0.03703704  0.03703704  0.00000000       0.000
   0.01851852  0.01851852  0.00000000       0.000
   0.00000000  0.00000000  0.00000000       0.000
   0.00000000  0.00000000  0.00000000       0.000
   0.03333333  0.00000000  0.00000000       0.000
   0.06666667  0.00000000  0.00000000       0.000
   0.10000000  0.00000000  0.00000000       0.000
   0.13333333  0.00000000  0.00000000       0.000
   0.16666667  0.00000000  0.00000000       0.000
   0.20000000  0.00000000  0.00000000       0.000
   0.23333333  0.00000000  0.00000000       0.000
   0.26666667  0.00000000  0.00000000       0.000
   0.30000000  0.00000000  0.00000000       0.000
   0.33333333  0.00000000  0.00000000       0.000
   0.36666667  0.00000000  0.00000000       0.000
   0.40000000  0.00000000  0.00000000       0.000
   0.43333333  0.00000000  0.00000000       0.000
   0.46666667  0.00000000  0.00000000       0.000
   0.50000000  0.00000000  0.00000000       0.000
 
 position of ions in fractional coordinates (direct lattice) 
   0.33333300  0.66666700  0.61484527
   0.66666700  0.33333300  0.38515473
   0.00000000  0.00000000  0.50000000
   0.66666700  0.33333300  0.46359046
   0.33333300  0.66666700  0.53640954
   0.66666700  0.33333300  0.65260444
   0.33333300  0.66666700  0.34739556
 
 position of ions in cartesian coordinates  (Angst):
  -0.00000178  2.05545231 17.74969939
   1.78007436  1.02772461 11.11886361
   0.00000000  0.00000000 14.43428150
   1.78007436  1.02772461 13.38319043
  -0.00000178  2.05545231 15.48537257
   1.78007436  1.02772461 18.83975227
  -0.00000178  2.05545231 10.02881073
 


--------------------------------------------------------------------------------------------------------


 k-point  1 :   0.0000 0.0000 0.0000  plane waves:    8603
 k-point  2 :   0.1111 0.0000 0.0000  plane waves:    8613
 k-point  3 :   0.2222 0.0000 0.0000  plane waves:    8565
 k-point  4 :   0.3333 0.0000 0.0000  plane waves:    8518
 k-point  5 :   0.4444 0.0000 0.0000  plane waves:    8508
 k-point  6 :   0.1111 0.1111 0.0000  plane waves:    8549
 k-point  7 :   0.2222 0.1111 0.0000  plane waves:    8530
 k-point  8 :   0.3333 0.1111 0.0000  plane waves:    8530
 k-point  9 :   0.4444 0.1111 0.0000  plane waves:    8502
 k-point 10 :   0.2222 0.2222 0.0000  plane waves:    8567
 k-point 11 :   0.3333 0.2222 0.0000  plane waves:    8513
 k-point 12 :   0.3333 0.3333 0.0000  plane waves:    8526
 k-point 13 :   0.5000 0.0000 0.0000  plane waves:    8490
 k-point 14 :   0.4792 0.0417 0.0000  plane waves:    8498
 k-point 15 :   0.4583 0.0833 0.0000  plane waves:    8506
 k-point 16 :   0.4375 0.1250 0.0000  plane waves:    8500
 k-point 17 :   0.4167 0.1667 0.0000  plane waves:    8490
 k-point 18 :   0.3958 0.2083 0.0000  plane waves:    8514
 k-point 19 :   0.3750 0.2500 0.0000  plane waves:    8490
 k-point 20 :   0.3542 0.2917 0.0000  plane waves:    8532
 k-point 21 :   0.3333 0.3333 0.0000  plane waves:    8526
 k-point 22 :   0.3333 0.3333 0.0000  plane waves:    8526
 k-point 23 :   0.3148 0.3148 0.0000  plane waves:    8522
 k-point 24 :   0.2963 0.2963 0.0000  plane waves:    8511
 k-point 25 :   0.2778 0.2778 0.0000  plane waves:    8523
 k-point 26 :   0.2593 0.2593 0.0000  plane waves:    8525
 k-point 27 :   0.2407 0.2407 0.0000  plane waves:    8543
 k-point 28 :   0.2222 0.2222 0.0000  plane waves:    8567
 k-point 29 :   0.2037 0.2037 0.0000  plane waves:    8547
 k-point 30 :   0.1852 0.1852 0.0000  plane waves:    8541
 k-point 31 :   0.1667 0.1667 0.0000  plane waves:    8537
 k-point 32 :   0.1481 0.1481 0.0000  plane waves:    8539
 k-point 33 :   0.1296 0.1296 0.0000  plane waves:    8541
 k-point 34 :   0.1111 0.1111 0.0000  plane waves:    8549
 k-point 35 :   0.0926 0.0926 0.0000  plane waves:    8573
 k-point 36 :   0.0741 0.0741 0.0000  plane waves:    8601
 k-point 37 :   0.0556 0.0556 0.0000  plane waves:    8631
 k-point 38 :   0.0370 0.0370 0.0000  plane waves:    8631
 k-point 39 :   0.0185 0.0185 0.0000  plane waves:    8609
 k-point 40 :   0.0000 0.0000 0.0000  plane waves:    8603
 k-point 41 :   0.0000 0.0000 0.0000  plane waves:    8603
 k-point 42 :   0.0333 0.0000 0.0000  plane waves:    8609
 k-point 43 :   0.0667 0.0000 0.0000  plane waves:    8617
 k-point 44 :   0.1000 0.0000 0.0000  plane waves:    8611
 k-point 45 :   0.1333 0.0000 0.0000  plane waves:    8601
 k-point 46 :   0.1667 0.0000 0.0000  plane waves:    8563
 k-point 47 :   0.2000 0.0000 0.0000  plane waves:    8555
 k-point 48 :   0.2333 0.0000 0.0000  plane waves:    8569
 k-point 49 :   0.2667 0.0000 0.0000  plane waves:    8535
 k-point 50 :   0.3000 0.0000 0.0000  plane waves:    8534
 k-point 51 :   0.3333 0.0000 0.0000  plane waves:    8518
 k-point 52 :   0.3667 0.0000 0.0000  plane waves:    8498
 k-point 53 :   0.4000 0.0000 0.0000  plane waves:    8518
 k-point 54 :   0.4333 0.0000 0.0000  plane waves:    8504
 k-point 55 :   0.4667 0.0000 0.0000  plane waves:    8484
 k-point 56 :   0.5000 0.0000 0.0000  plane waves:    8490

 maximum and minimum number of plane-waves per node :      8631     8484

 maximum number of plane-waves:      8631
 maximum index in each direction: 
   IXMAX=    6   IYMAX=    6   IZMAX=   53
   IXMIN=   -7   IYMIN=   -6   IZMIN=  -53


 serial   3D FFT for wavefunctions
 parallel 3D FFT for charge:
    minimum data exchange during FFTs selected (reduces bandwidth)

 
 Radii for the augmentation spheres in the non-local exchange
 for species   1 augmentation radius   1.596 (default was   1.277)
       energy cutoff for augmentation   2080.0
 for species   2 augmentation radius   1.307 (default was   1.045)
       energy cutoff for augmentation   2080.0
 for species   3 augmentation radius   1.212 (default was   0.970)
       energy cutoff for augmentation   2080.0
 Maximum index for augmentation-charges in exchange         3483
  SETUP_FOCK is finished

 total amount of memory used by VASP MPI-rank0   297594. kBytes
=======================================================================

   base      :      30000. kBytes
   nonl-proj :     209986. kBytes
   fftplans  :        673. kBytes
   grid      :       6343. kBytes
   one-center:        217. kBytes
   HF        :        194. kBytes
   nonlr-proj:       2874. kBytes
   wavefun   :      47307. kBytes
 
     INWAV:  cpu time    0.0000: real time    0.0000
 Broyden mixing: mesh for mixing (old mesh)
   NGX = 13   NGY = 13   NGZ =107
  (NGX  = 40   NGY  = 40   NGZ  =324)
  gives a total of  18083 points

 initial charge density was supplied:
 charge density of overlapping atoms calculated
 number of electron      39.0000000 magnetization       7.0000000
 charge density for first step will be calculated from the start-wavefunctions


--------------------------------------------------------------------------------------------------------


 Maximum index for augmentation-charges          437 (set IRDMAX)


--------------------------------------------------------------------------------------------------------


 First call to EWALD:  gamma=   0.260
 Maximum number of real-space cells 5x 5x 1
 Maximum number of reciprocal cells 2x 2x10

    FEWALD:  cpu time    0.0019: real time    0.0019


--------------------------------------- Iteration      1(   1)  ---------------------------------------


    POTLOK:  cpu time    0.0566: real time    0.0601
    SETDIJ:  cpu time    0.1927: real time    0.1932
    TRIAL :  cpu time   24.3097: real time   24.3597
    CORREC:  cpu time    0.0016: real time    0.0016
    --------------------------------------------
      LOOP:  cpu time   24.5785: real time   24.6352

 eigenvalue-minimisations  : 35840
 total energy-change (2. order) : 0.1137395E+03  (-0.2353388E+04)
 number of electron      39.0000000 magnetization       7.0000000
 augmentation part       39.0000000 magnetization       7.0000000

 Free energy of the ion-electron system (eV)
  ---------------------------------------------------
  alpha Z        PSCENC =        32.81390211
  Ewald energy   TEWEN  =     11524.67585812
  -Hartree energ DENC   =    -13385.01819231
  -exchange      EXHF   =         0.00000000
  -V(xc)+E(xc)   XCENC  =        20.23219870
  PAW double counting   =      1719.45456767    -1721.01293944
  entropy T*S    EENTRO =        -0.00160005
  eigenvalues    EBANDS =      -100.16784282
  atomic energy  EATOM  =      2022.76351004
  ---------------------------------------------------
  free energy    TOTEN  =       113.73946204 eV

  energy without entropy =      113.74106209  energy(sigma->0) =      113.74026206
  exchange ACFDT corr.  =         0.00000000  see jH, gK, PRB 81, 115126


--------------------------------------------------------------------------------------------------------




--------------------------------------- Iteration      1(   2)  ---------------------------------------


    TRIAL :  cpu time   57.3929: real time   57.5113
    CORREC:  cpu time    0.0019: real time    0.0019
    --------------------------------------------
      LOOP:  cpu time   57.3954: real time   57.5139

 eigenvalue-minimisations  : 53760
 total energy-change (2. order) :-0.8770612E+02  (-0.8754868E+02)
 number of electron      39.0000000 magnetization       7.0000000
 augmentation part       39.0000000 magnetization       7.0000000

 Free energy of the ion-electron system (eV)
  ---------------------------------------------------
  alpha Z        PSCENC =        32.81390211
  Ewald energy   TEWEN  =     11524.67585812
  -Hartree energ DENC   =    -13385.01819231
  -exchange      EXHF   =         0.00000000
  -V(xc)+E(xc)   XCENC  =        20.23219870
  PAW double counting   =      1719.45456767    -1721.01293944
  entropy T*S    EENTRO =        -0.00139535
  eigenvalues    EBANDS =      -187.87417204
  atomic energy  EATOM  =      2022.76351004
  ---------------------------------------------------
  free energy    TOTEN  =        26.03333751 eV

  energy without entropy =       26.03473286  energy(sigma->0) =       26.03403519
  exchange ACFDT corr.  =         0.00000000  see jH, gK, PRB 81, 115126


--------------------------------------------------------------------------------------------------------




--------------------------------------- Iteration      1(   3)  ---------------------------------------


    TRIAL :  cpu time   25.0500: real time   25.1016
    CORREC:  cpu time    0.0016: real time    0.0040
    --------------------------------------------
      LOOP:  cpu time   25.0520: real time   25.1059

 eigenvalue-minimisations  : 35840
 total energy-change (2. order) :-0.3181352E+00  (-0.3181281E+00)
 number of electron      39.0000000 magnetization       7.0000000
 augmentation part       39.0000000 magnetization       7.0000000

 Free energy of the ion-electron system (eV)
  ---------------------------------------------------
  alpha Z        PSCENC =        32.81390211
  Ewald energy   TEWEN  =     11524.67585812
  -Hartree energ DENC   =    -13385.01819231
  -exchange      EXHF   =         0.00000000
  -V(xc)+E(xc)   XCENC  =        20.23219870
  PAW double counting   =      1719.45456767    -1721.01293944
  entropy T*S    EENTRO =        -0.00143538
  eigenvalues    EBANDS =      -188.19226726
  atomic energy  EATOM  =      2022.76351004
  ---------------------------------------------------
  free energy    TOTEN  =        25.71520226 eV

  energy without entropy =       25.71663765  energy(sigma->0) =       25.71591996
  exchange ACFDT corr.  =         0.00000000  see jH, gK, PRB 81, 115126


--------------------------------------------------------------------------------------------------------




--------------------------------------- Iteration      1(   4)  ---------------------------------------


    TRIAL :  cpu time  116.7569: real time  116.9997
    CORREC:  cpu time    0.0022: real time    0.0022
    --------------------------------------------
      LOOP:  cpu time  116.7595: real time  117.0023

 eigenvalue-minimisations  : 71680
 total energy-change (2. order) :-0.7353897E-03  (-0.7352969E-03)
 number of electron      39.0000000 magnetization       7.0000000
 augmentation part       39.0000000 magnetization       7.0000000

 Free energy of the ion-electron system (eV)
  ---------------------------------------------------
  alpha Z        PSCENC =        32.81390211
  Ewald energy   TEWEN  =     11524.67585812
  -Hartree energ DENC   =    -13385.01819231
  -exchange      EXHF   =         0.00000000
  -V(xc)+E(xc)   XCENC  =        20.23219870
  PAW double counting   =      1719.45456767    -1721.01293944
  entropy T*S    EENTRO =        -0.00143551
  eigenvalues    EBANDS =      -188.19300252
  atomic energy  EATOM  =      2022.76351004
  ---------------------------------------------------
  free energy    TOTEN  =        25.71446687 eV

  energy without entropy =       25.71590238  energy(sigma->0) =       25.71518463
  exchange ACFDT corr.  =         0.00000000  see jH, gK, PRB 81, 115126


--------------------------------------------------------------------------------------------------------




--------------------------------------- Iteration      1(   5)  ---------------------------------------


    TRIAL :  cpu time   24.9684: real time   25.0198
    CORREC:  cpu time    0.0016: real time    0.0016
    CHARGE:  cpu time    0.2174: real time    0.3509
    --------------------------------------------
      LOOP:  cpu time   25.1878: real time   25.3728

 eigenvalue-minimisations  : 35840
 total energy-change (2. order) :-0.6159098E-08  (-0.6181215E-08)
 number of electron      38.9999963 magnetization       0.9999968
 augmentation part       -0.5831351 magnetization       0.2261187

 Free energy of the ion-electron system (eV)
  ---------------------------------------------------
  alpha Z        PSCENC =        32.81390211
  Ewald energy   TEWEN  =     11524.67585812
  -Hartree energ DENC   =    -13385.01819231
  -exchange      EXHF   =         0.00000000
  -V(xc)+E(xc)   XCENC  =        20.23219870
  PAW double counting   =      1719.45456767    -1721.01293944
  entropy T*S    EENTRO =        -0.00143551
  eigenvalues    EBANDS =      -188.19300253
  atomic energy  EATOM  =      2022.76351004
  ---------------------------------------------------
  free energy    TOTEN  =        25.71446687 eV

  energy without entropy =       25.71590238  energy(sigma->0) =       25.71518462
  exchange ACFDT corr.  =         0.00000000  see jH, gK, PRB 81, 115126


--------------------------------------------------------------------------------------------------------




--------------------------------------- Iteration      1(   6)  ---------------------------------------


    POTLOK:  cpu time    0.0579: real time    0.0580
    SETDIJ:  cpu time    0.1793: real time    0.1797
    TRIAL :  cpu time 4150.4829: real time 4159.5530
    CORREC:  cpu time 4122.2951: real time 4131.2829
    CHARGE:  cpu time    0.1908: real time    0.1912
    --------------------------------------------
      LOOP:  cpu time 8273.2065: real time 8291.2653

 eigenvalue-minimisations  :     0
 total energy-change (2. order) :-0.3226785E+02  (-0.7133961E+02)
 number of electron      38.9999954 magnetization       0.9999999
 augmentation part        1.1761623 magnetization       0.5178893

 Free energy of the ion-electron system (eV)
  ---------------------------------------------------
  alpha Z        PSCENC =        32.81390211
  Ewald energy   TEWEN  =     11524.67585812
  -Hartree energ DENC   =    -12989.99601213
  -exchange      EXHF   =        67.77216097
  -V(xc)+E(xc)   XCENC  =        16.57676741
  PAW double counting   =      4604.41687166    -4575.79539095
  entropy T*S    EENTRO =        -0.00106848
  eigenvalues    EBANDS =      -709.77961128
  atomic energy  EATOM  =      2022.76351004
  ---------------------------------------------------
  free energy    TOTEN  =        -6.55337955 eV

  energy without entropy =       -6.55231107  energy(sigma->0) =       -6.55284531
  exchange ACFDT corr.  =        -0.00357201  see jH, gK, PRB 81, 115126


--------------------------------------------------------------------------------------------------------




--------------------------------------- Iteration      1(   7)  ---------------------------------------


    POTLOK:  cpu time    0.0583: real time    0.0585
    SETDIJ:  cpu time    0.1990: real time    0.1994
    TRIAL :  cpu time 4107.8627: real time 4116.8389
    CORREC:  cpu time 4097.4292: real time 4106.4146
    CHARGE:  cpu time    0.1935: real time    0.1939
    --------------------------------------------
      LOOP:  cpu time 8205.7433: real time 8223.7078

 eigenvalue-minimisations  :     0
 total energy-change (2. order) :-0.3287112E+02  (-0.2802422E+01)
 number of electron      38.9999955 magnetization       0.9999999
 augmentation part        0.9214448 magnetization       0.5379103

 Free energy of the ion-electron system (eV)
  ---------------------------------------------------
  alpha Z        PSCENC =        32.81390211
  Ewald energy   TEWEN  =     11524.67585812
  -Hartree energ DENC   =    -13584.35416167
  -exchange      EXHF   =        70.61345165
  -V(xc)+E(xc)   XCENC  =        20.62904951
  PAW double counting   =      4599.01414254    -4605.66409403
  entropy T*S    EENTRO =        -0.00155404
  eigenvalues    EBANDS =      -119.91509230
  atomic energy  EATOM  =      2022.76351004
  ---------------------------------------------------
  free energy    TOTEN  =       -39.42450250 eV

  energy without entropy =      -39.42294846  energy(sigma->0) =      -39.42372548
  exchange ACFDT corr.  =       -27.61082975  see jH, gK, PRB 81, 115126


--------------------------------------------------------------------------------------------------------




--------------------------------------- Iteration      1(   8)  ---------------------------------------


    POTLOK:  cpu time    0.0589: real time    0.0591
    SETDIJ:  cpu time    0.1860: real time    0.1864
    TRIAL :  cpu time 4117.5709: real time 4126.5431
    CORREC:  cpu time 4135.1371: real time 4144.1829
    CHARGE:  cpu time    0.1905: real time    0.1909
    --------------------------------------------
      LOOP:  cpu time 8253.1439: real time 8271.1628

 eigenvalue-minimisations  :     0
 total energy-change (2. order) :-0.2801744E+01  (-0.6600022E+00)
 number of electron      38.9999953 magnetization       0.9999999
 augmentation part        1.0608023 magnetization       0.5848302

 Free energy of the ion-electron system (eV)
  ---------------------------------------------------
  alpha Z        PSCENC =        32.81390211
  Ewald energy   TEWEN  =     11524.67585812
  -Hartree energ DENC   =    -13390.92044965
  -exchange      EXHF   =        70.59530738
  -V(xc)+E(xc)   XCENC  =        20.16687248
  PAW double counting   =      4416.71132938    -4416.79130123
  entropy T*S    EENTRO =        -0.00111440
  eigenvalues    EBANDS =      -322.23972142
  atomic energy  EATOM  =      2022.76351004
  ---------------------------------------------------
  free energy    TOTEN  =       -42.22624682 eV

  energy without entropy =      -42.22513243  energy(sigma->0) =      -42.22568963
  exchange ACFDT corr.  =        -0.02520606  see jH, gK, PRB 81, 115126


--------------------------------------------------------------------------------------------------------




--------------------------------------- Iteration      1(   9)  ---------------------------------------


    POTLOK:  cpu time    0.0547: real time    0.0548
    SETDIJ:  cpu time    0.1946: real time    0.1950
    TRIAL :  cpu time 4131.2403: real time 4140.2817
    CORREC:  cpu time 4112.0004: real time 4121.0202
    CHARGE:  cpu time    0.1912: real time    0.1915
    --------------------------------------------
      LOOP:  cpu time 8243.6817: real time 8261.7438

 eigenvalue-minimisations  :     0
 total energy-change (2. order) :-0.7006504E+00  (-0.3187308E+00)
 number of electron      38.9999953 magnetization       1.0000000
 augmentation part        0.9881329 magnetization       0.6597616

 Free energy of the ion-electron system (eV)
  ---------------------------------------------------
  alpha Z        PSCENC =        32.81390211
  Ewald energy   TEWEN  =     11524.67585812
  -Hartree energ DENC   =    -13394.53407445
  -exchange      EXHF   =        71.29991416
  -V(xc)+E(xc)   XCENC  =        20.74460868
  PAW double counting   =      4304.17002994    -4307.48435402
  entropy T*S    EENTRO =        -0.00119681
  eigenvalues    EBANDS =      -317.37517745
  atomic energy  EATOM  =      2022.76351004
  ---------------------------------------------------
  free energy    TOTEN  =       -42.92689725 eV

  energy without entropy =      -42.92570045  energy(sigma->0) =      -42.92629885
  exchange ACFDT corr.  =        -0.01068342  see jH, gK, PRB 81, 115126


--------------------------------------------------------------------------------------------------------




--------------------------------------- Iteration      1(  10)  ---------------------------------------


    POTLOK:  cpu time    0.0536: real time    0.0538
    SETDIJ:  cpu time    0.1886: real time    0.1890
    TRIAL :  cpu time 4113.2594: real time 4122.2749
    CORREC:  cpu time 4118.7546: real time 4127.8031
    CHARGE:  cpu time    0.1817: real time    0.1820
    --------------------------------------------
      LOOP:  cpu time 8232.4385: real time 8250.6102

 eigenvalue-minimisations  :     0
 total energy-change (2. order) :-0.3269463E+00  (-0.1254889E+00)
 number of electron      38.9999952 magnetization       1.0000000
 augmentation part        1.0562903 magnetization       0.7352152

 Free energy of the ion-electron system (eV)
  ---------------------------------------------------
  alpha Z        PSCENC =        32.81390211
  Ewald energy   TEWEN  =     11524.67585812
  -Hartree energ DENC   =    -13412.63343200
  -exchange      EXHF   =        71.79561739
  -V(xc)+E(xc)   XCENC  =        20.86275244
  PAW double counting   =      4265.19525460    -4266.32662995
  entropy T*S    EENTRO =        -0.00106916
  eigenvalues    EBANDS =      -302.39947950
  atomic energy  EATOM  =      2022.76351004
  ---------------------------------------------------
  free energy    TOTEN  =       -43.25384354 eV

  energy without entropy =      -43.25277439  energy(sigma->0) =      -43.25330897
  exchange ACFDT corr.  =        -0.00748895  see jH, gK, PRB 81, 115126


--------------------------------------------------------------------------------------------------------




--------------------------------------- Iteration      1(  11)  ---------------------------------------


    POTLOK:  cpu time    0.0618: real time    0.0620
    SETDIJ:  cpu time    0.1859: real time    0.1863
    TRIAL :  cpu time 4128.8354: real time 4137.9384
    CORREC:  cpu time 4131.6348: real time 4140.7132
    CHARGE:  cpu time    0.1825: real time    0.1828
    --------------------------------------------
      LOOP:  cpu time 8260.9017: real time 8279.2262

 eigenvalue-minimisations  :     0
 total energy-change (2. order) :-0.1286976E+00  (-0.6021739E-01)
 number of electron      38.9999952 magnetization       1.0000000
 augmentation part        1.0323726 magnetization       0.7918211

 Free energy of the ion-electron system (eV)
  ---------------------------------------------------
  alpha Z        PSCENC =        32.81390211
  Ewald energy   TEWEN  =     11524.67585812
  -Hartree energ DENC   =    -13434.00446264
  -exchange      EXHF   =        72.25369647
  -V(xc)+E(xc)   XCENC  =        21.16591976
  PAW double counting   =      4312.66186748    -4315.99217211
  entropy T*S    EENTRO =        -0.00080708
  eigenvalues    EBANDS =      -279.71959127
  atomic energy  EATOM  =      2022.76351004
  ---------------------------------------------------
  free energy    TOTEN  =       -43.38254118 eV

  energy without entropy =      -43.38173410  energy(sigma->0) =      -43.38213764
  exchange ACFDT corr.  =        -0.00438022  see jH, gK, PRB 81, 115126


--------------------------------------------------------------------------------------------------------




--------------------------------------- Iteration      1(  12)  ---------------------------------------


    POTLOK:  cpu time    0.0614: real time    0.0615
    SETDIJ:  cpu time    0.1888: real time    0.1893
    TRIAL :  cpu time 4137.4940: real time 4146.6255
    CORREC:  cpu time 4160.6384: real time 4169.7721
    CHARGE:  cpu time    0.1825: real time    0.1829
    --------------------------------------------
      LOOP:  cpu time 8298.5663: real time 8316.9649

 eigenvalue-minimisations  :     0
 total energy-change (2. order) :-0.6266672E-01  (-0.3306656E-01)
 number of electron      38.9999951 magnetization       1.0000000
 augmentation part        1.0467261 magnetization       0.8573497

 Free energy of the ion-electron system (eV)
  ---------------------------------------------------
  alpha Z        PSCENC =        32.81390211
  Ewald energy   TEWEN  =     11524.67585812
  -Hartree energ DENC   =    -13415.73053098
  -exchange      EXHF   =        72.41233505
  -V(xc)+E(xc)   XCENC  =        21.16322704
  PAW double counting   =      4378.02909202    -4380.94040964
  entropy T*S    EENTRO =        -0.00052996
  eigenvalues    EBANDS =      -298.63138461
  atomic energy  EATOM  =      2022.76351004
  ---------------------------------------------------
  free energy    TOTEN  =       -43.44520791 eV

  energy without entropy =      -43.44467795  energy(sigma->0) =      -43.44494293
  exchange ACFDT corr.  =        -0.00270273  see jH, gK, PRB 81, 115126


--------------------------------------------------------------------------------------------------------




--------------------------------------- Iteration      1(  13)  ---------------------------------------


    POTLOK:  cpu time    0.0604: real time    0.0606
    SETDIJ:  cpu time    0.1911: real time    0.1915
    TRIAL :  cpu time 4125.0619: real time 4134.1248
    CORREC:  cpu time 4153.3938: real time 4162.4739
    CHARGE:  cpu time    0.1828: real time    0.1832
    --------------------------------------------
      LOOP:  cpu time 8278.8909: real time 8297.1532

 eigenvalue-minimisations  :     0
 total energy-change (2. order) :-0.3364591E-01  (-0.1245340E-01)
 number of electron      38.9999951 magnetization       1.0000000
 augmentation part        1.0296547 magnetization       0.8932234

 Free energy of the ion-electron system (eV)
  ---------------------------------------------------
  alpha Z        PSCENC =        32.81390211
  Ewald energy   TEWEN  =     11524.67585812
  -Hartree energ DENC   =    -13423.79882156
  -exchange      EXHF   =        72.52658280
  -V(xc)+E(xc)   XCENC  =        21.20728126
  PAW double counting   =      4440.56323987    -4443.66260670
  entropy T*S    EENTRO =        -0.00042346
  eigenvalues    EBANDS =      -290.56726981
  atomic energy  EATOM  =      2022.76351004
  ---------------------------------------------------
  free energy    TOTEN  =       -43.47885382 eV

  energy without entropy =      -43.47843036  energy(sigma->0) =      -43.47864209
  exchange ACFDT corr.  =        -0.00154538  see jH, gK, PRB 81, 115126


--------------------------------------------------------------------------------------------------------




--------------------------------------- Iteration      1(  14)  ---------------------------------------


    POTLOK:  cpu time    0.0543: real time    0.0545
    SETDIJ:  cpu time    0.1881: real time    0.1885
    TRIAL :  cpu time 4112.6843: real time 4121.7027
    CORREC:  cpu time 4127.9044: real time 4136.9728
    CHARGE:  cpu time    0.1833: real time    0.1836
    --------------------------------------------
      LOOP:  cpu time 8241.0155: real time 8259.2162

 eigenvalue-minimisations  :     0
 total energy-change (2. order) :-0.1263990E-01  (-0.5995401E-02)
 number of electron      38.9999951 magnetization       1.0000000
 augmentation part        1.0440042 magnetization       0.9185113

 Free energy of the ion-electron system (eV)
  ---------------------------------------------------
  alpha Z        PSCENC =        32.81390211
  Ewald energy   TEWEN  =     11524.67585812
  -Hartree energ DENC   =    -13415.63026993
  -exchange      EXHF   =        72.51084797
  -V(xc)+E(xc)   XCENC  =        21.14756685
  PAW double counting   =      4429.25193362    -4431.90428670
  entropy T*S    EENTRO =        -0.00038244
  eigenvalues    EBANDS =      -299.12013235
  atomic energy  EATOM  =      2022.76351004
  ---------------------------------------------------
  free energy    TOTEN  =       -43.49149372 eV

  energy without entropy =      -43.49111128  energy(sigma->0) =      -43.49130250
  exchange ACFDT corr.  =        -0.00120174  see jH, gK, PRB 81, 115126


--------------------------------------------------------------------------------------------------------




--------------------------------------- Iteration      1(  15)  ---------------------------------------


    POTLOK:  cpu time    0.0610: real time    0.0611
    SETDIJ:  cpu time    0.1885: real time    0.1890
    TRIAL :  cpu time 4111.3311: real time 4120.2720
    CORREC:  cpu time 4137.7179: real time 4146.7994
    CHARGE:  cpu time    0.1884: real time    0.1887
    --------------------------------------------
      LOOP:  cpu time 8249.4878: real time 8267.5400

 eigenvalue-minimisations  :     0
 total energy-change (2. order) :-0.5990875E-02  (-0.2043782E-02)
 number of electron      38.9999951 magnetization       1.0000000
 augmentation part        1.0381560 magnetization       0.9302925

 Free energy of the ion-electron system (eV)
  ---------------------------------------------------
  alpha Z        PSCENC =        32.81390211
  Ewald energy   TEWEN  =     11524.67585812
  -Hartree energ DENC   =    -13417.69771534
  -exchange      EXHF   =        72.52832932
  -V(xc)+E(xc)   XCENC  =        21.16637133
  PAW double counting   =      4411.51414497    -4414.64934216
  entropy T*S    EENTRO =        -0.00038155
  eigenvalues    EBANDS =      -296.61216056
  atomic energy  EATOM  =      2022.76351004
  ---------------------------------------------------
  free energy    TOTEN  =       -43.49748459 eV

  energy without entropy =      -43.49710305  energy(sigma->0) =      -43.49729382
  exchange ACFDT corr.  =        -0.00107318  see jH, gK, PRB 81, 115126


--------------------------------------------------------------------------------------------------------




--------------------------------------- Iteration      1(  16)  ---------------------------------------


    POTLOK:  cpu time    0.0503: real time    0.0505
    SETDIJ:  cpu time    0.1849: real time    0.1853
    TRIAL :  cpu time 4131.8142: real time 4140.7847
    CORREC:  cpu time 4140.5841: real time 4149.5976
    CHARGE:  cpu time    0.1846: real time    0.1850
    --------------------------------------------
      LOOP:  cpu time 8272.8187: real time 8290.8035

 eigenvalue-minimisations  :     0
 total energy-change (2. order) :-0.2043105E-02  (-0.8576639E-03)
 number of electron      38.9999951 magnetization       1.0000000
 augmentation part        1.0425153 magnetization       0.9384937

 Free energy of the ion-electron system (eV)
  ---------------------------------------------------
  alpha Z        PSCENC =        32.81390211
  Ewald energy   TEWEN  =     11524.67585812
  -Hartree energ DENC   =    -13418.75548275
  -exchange      EXHF   =        72.51919784
  -V(xc)+E(xc)   XCENC  =        21.15308306
  PAW double counting   =      4400.04651676    -4402.98745827
  entropy T*S    EENTRO =        -0.00039148
  eigenvalues    EBANDS =      -295.72827307
  atomic energy  EATOM  =      2022.76351004
  ---------------------------------------------------
  free energy    TOTEN  =       -43.49952770 eV

  energy without entropy =      -43.49913622  energy(sigma->0) =      -43.49933196
  exchange ACFDT corr.  =        -0.00106205  see jH, gK, PRB 81, 115126


--------------------------------------------------------------------------------------------------------




--------------------------------------- Iteration      1(  17)  ---------------------------------------


    POTLOK:  cpu time    0.0506: real time    0.0508
    SETDIJ:  cpu time    0.1894: real time    0.1898
    TRIAL :  cpu time 4143.0585: real time 4152.0292
    CORREC:  cpu time 4131.8815: real time 4140.8659
    CHARGE:  cpu time    0.1873: real time    0.1876
    --------------------------------------------
      LOOP:  cpu time 8275.3678: real time 8293.3238

 eigenvalue-minimisations  :     0
 total energy-change (2. order) :-0.8551869E-03  (-0.2438869E-03)
 number of electron      38.9999952 magnetization       1.0000000
 augmentation part        1.0392365 magnetization       0.9409263

 Free energy of the ion-electron system (eV)
  ---------------------------------------------------
  alpha Z        PSCENC =        32.81390211
  Ewald energy   TEWEN  =     11524.67585812
  -Hartree energ DENC   =    -13418.71034219
  -exchange      EXHF   =        72.52826096
  -V(xc)+E(xc)   XCENC  =        21.17052605
  PAW double counting   =      4394.97417078    -4398.04946595
  entropy T*S    EENTRO =        -0.00040001
  eigenvalues    EBANDS =      -295.66641133
  atomic energy  EATOM  =      2022.76351004
  ---------------------------------------------------
  free energy    TOTEN  =       -43.50038289 eV

  energy without entropy =      -43.49998288  energy(sigma->0) =      -43.50018288
  exchange ACFDT corr.  =        -0.00107887  see jH, gK, PRB 81, 115126


--------------------------------------------------------------------------------------------------------




--------------------------------------- Iteration      1(  18)  ---------------------------------------


    POTLOK:  cpu time    0.0522: real time    0.0524
    SETDIJ:  cpu time    0.1885: real time    0.1889
    TRIAL :  cpu time 4117.5456: real time 4126.4933
    CORREC:  cpu time 4162.6386: real time 4171.7157
    CHARGE:  cpu time    0.1891: real time    0.1894
    --------------------------------------------
      LOOP:  cpu time 8280.6146: real time 8298.6402

 eigenvalue-minimisations  :     0
 total energy-change (2. order) :-0.2438621E-03  (-0.1092461E-03)
 number of electron      38.9999952 magnetization       1.0000000
 augmentation part        1.0400607 magnetization       0.9426964

 Free energy of the ion-electron system (eV)
  ---------------------------------------------------
  alpha Z        PSCENC =        32.81390211
  Ewald energy   TEWEN  =     11524.67585812
  -Hartree energ DENC   =    -13417.98179359
  -exchange      EXHF   =        72.52473826
  -V(xc)+E(xc)   XCENC  =        21.16709801
  PAW double counting   =      4395.37624957    -4398.35674514
  entropy T*S    EENTRO =        -0.00040701
  eigenvalues    EBANDS =      -296.48304413
  atomic energy  EATOM  =      2022.76351004
  ---------------------------------------------------
  free energy    TOTEN  =       -43.50062675 eV

  energy without entropy =      -43.50021974  energy(sigma->0) =      -43.50042325
  exchange ACFDT corr.  =        -0.00109860  see jH, gK, PRB 81, 115126


--------------------------------------------------------------------------------------------------------




--------------------------------------- Iteration      1(  19)  ---------------------------------------


    POTLOK:  cpu time    0.0512: real time    0.0513
    SETDIJ:  cpu time    0.1944: real time    0.1949
    TRIAL :  cpu time 4115.2232: real time 4124.1367
    CORREC:  cpu time 4143.9658: real time 4153.0023
    CHARGE:  cpu time    0.1878: real time    0.1881
    --------------------------------------------
      LOOP:  cpu time 8259.6229: real time 8277.5737

 eigenvalue-minimisations  :     0
 total energy-change (2. order) :-0.1092578E-03  (-0.3257567E-04)
 number of electron      38.9999952 magnetization       1.0000000
 augmentation part        1.0391804 magnetization       0.9432286

 Free energy of the ion-electron system (eV)
[...]
    145      30.9460      0.00000
    146      31.1658      0.00000
    147      31.2502      0.00000
    148      31.2913      0.00000
    149      31.3051      0.00000
    150      31.5560      0.00000
    151      31.7396      0.00000
    152      31.8636      0.00000
    153      31.9348      0.00000
    154      32.0594      0.00000
    155      32.1149      0.00000
    156      32.4038      0.00000
    157      32.4872      0.00000
    158      32.5350      0.00000
    159      32.6710      0.00000
    160      32.7601      0.00000

 k-point    56 :       0.5000    0.0000    0.0000
  band No.  band energies     occupation 
      1     -16.2377      1.00000
      2     -16.1466      1.00000
      3     -15.9263      1.00000
      4     -15.5437      1.00000
      5     -10.0346      1.00000
      6      -9.9235      1.00000
      7      -8.4961      1.00000
      8      -7.1954      1.00000
      9      -6.0423      1.00000
     10      -5.4185      1.00000
     11      -5.3891      1.00000
     12      -5.2688      1.00000
     13      -5.2060      1.00000
     14      -4.7337      1.00000
     15      -4.1221      1.00000
     16      -4.0538      1.00000
     17      -2.7789      1.00000
     18      -2.6559      1.00000
     19      -2.6317      1.00000
     20       1.0508      0.00000
     21       1.1172      0.00000
     22       1.5587      0.00000
     23       1.7134      0.00000
     24       2.9714      0.00000
     25       3.5407      0.00000
     26       4.0394      0.00000
     27       5.2171      0.00000
     28       5.2778      0.00000
     29       5.5667      0.00000
     30       6.2078      0.00000
     31       6.3764      0.00000
     32       7.0341      0.00000
     33       7.1070      0.00000
     34       7.3996      0.00000
     35       7.5230      0.00000
     36       8.0299      0.00000
     37       8.0924      0.00000
     38       8.3734      0.00000
     39       8.5829      0.00000
     40       9.2224      0.00000
     41       9.3250      0.00000
     42       9.5711      0.00000
     43       9.9312      0.00000
     44      10.0294      0.00000
     45      10.5627      0.00000
     46      10.9461      0.00000
     47      11.1242      0.00000
     48      11.3599      0.00000
     49      11.6585      0.00000
     50      12.0221      0.00000
     51      12.2361      0.00000
     52      12.6957      0.00000
     53      12.7050      0.00000
     54      13.1245      0.00000
     55      13.1837      0.00000
     56      13.2823      0.00000
     57      13.5434      0.00000
     58      13.6790      0.00000
     59      13.7553      0.00000
     60      13.9177      0.00000
     61      14.0124      0.00000
     62      14.5007      0.00000
     63      14.6038      0.00000
     64      14.9679      0.00000
     65      15.1470      0.00000
     66      15.5362      0.00000
     67      15.5654      0.00000
     68      15.7603      0.00000
     69      15.8664      0.00000
     70      15.9676      0.00000
     71      16.0175      0.00000
     72      16.1662      0.00000
     73      16.3570      0.00000
     74      16.4509      0.00000
     75      16.4611      0.00000
     76      16.4649      0.00000
     77      16.7443      0.00000
     78      16.9303      0.00000
     79      17.0286      0.00000
     80      17.0836      0.00000
     81      17.3796      0.00000
     82      17.8471      0.00000
     83      18.0252      0.00000
     84      18.1149      0.00000
     85      18.6598      0.00000
     86      18.8535      0.00000
     87      19.3916      0.00000
     88      19.4257      0.00000
     89      19.8365      0.00000
     90      19.9771      0.00000
     91      20.1107      0.00000
     92      20.1111      0.00000
     93      20.4360      0.00000
     94      20.7957      0.00000
     95      20.9095      0.00000
     96      21.4057      0.00000
     97      21.6666      0.00000
     98      22.1131      0.00000
     99      22.2365      0.00000
    100      22.2985      0.00000
    101      22.2996      0.00000
    102      22.7357      0.00000
    103      23.0146      0.00000
    104      23.3293      0.00000
    105      23.4119      0.00000
    106      23.4347      0.00000
    107      23.5105      0.00000
    108      23.8574      0.00000
    109      24.1705      0.00000
    110      24.3089      0.00000
    111      24.3337      0.00000
    112      24.7577      0.00000
    113      24.8352      0.00000
    114      25.1999      0.00000
    115      25.2250      0.00000
    116      25.3958      0.00000
    117      25.5047      0.00000
    118      25.7563      0.00000
    119      26.0734      0.00000
    120      26.2975      0.00000
    121      26.5856      0.00000
    122      26.7387      0.00000
    123      27.2173      0.00000
    124      27.4570      0.00000
    125      27.7387      0.00000
    126      27.8663      0.00000
    127      27.9437      0.00000
    128      27.9792      0.00000
    129      28.1533      0.00000
    130      28.7099      0.00000
    131      28.7418      0.00000
    132      28.9696      0.00000
    133      29.2343      0.00000
    134      29.2960      0.00000
    135      29.5114      0.00000
    136      29.7054      0.00000
    137      30.2890      0.00000
    138      30.3148      0.00000
    139      30.3335      0.00000
    140      30.5411      0.00000
    141      30.6420      0.00000
    142      30.9493      0.00000
    143      31.1203      0.00000
    144      31.1949      0.00000
    145      31.2638      0.00000
    146      31.4945      0.00000
    147      31.5136      0.00000
    148      31.5236      0.00000
    149      31.6363      0.00000
    150      31.6645      0.00000
    151      31.7739      0.00000
    152      31.8253      0.00000
    153      31.8495      0.00000
    154      31.9575      0.00000
    155      32.0162      0.00000
    156      32.1521      0.00000
    157      32.1603      0.00000
    158      32.3696      0.00000
    159      32.4304      0.00000
    160      32.4589      0.00000


--------------------------------------------------------------------------------------------------------


 soft charge-density along one line, spin component           1
         0         1         2         3         4         5         6         7         8         9
 total charge-density along one line
 
 soft charge-density along one line, spin component           2
         0         1         2         3         4         5         6         7         8         9
 total charge-density along one line
 
 pseudopotential strength for first ion, spin component:           1
  5.769   6.931   0.000   0.020  -0.000   0.000   0.037  -0.000
  6.931   8.319   0.000   0.025  -0.000   0.000   0.047  -0.000
  0.000   0.000   1.198   0.000   0.000   2.015   0.000   0.000
  0.020   0.025   0.000   1.197  -0.000   0.000   2.013  -0.000
 -0.000  -0.000   0.000  -0.000   1.198   0.000  -0.000   2.015
  0.000   0.000   2.015   0.000   0.000   3.400   0.000   0.000
  0.037   0.047   0.000   2.013  -0.000   0.000   3.397  -0.000
 -0.000  -0.000   0.000  -0.000   2.015   0.000  -0.000   3.400
  0.000   0.000  -0.000   0.000  -0.001  -0.000   0.000  -0.002
  0.000   0.000   0.008   0.000   0.000   0.014   0.000   0.000
 -0.002  -0.003  -0.000   0.002   0.000  -0.000   0.004   0.000
 -0.000  -0.000   0.000  -0.000   0.008   0.000  -0.000   0.014
 -0.000  -0.000  -0.001  -0.000  -0.000  -0.002  -0.000  -0.000
 pseudopotential strength for first ion, spin component:           2
  5.767   6.928   0.000   0.021  -0.000   0.000   0.040  -0.000
  6.928   8.315   0.000   0.026  -0.000   0.000   0.049  -0.000
  0.000   0.000   1.198   0.000   0.000   2.014   0.000   0.000
  0.021   0.026   0.000   1.197  -0.000   0.000   2.012  -0.000
 -0.000  -0.000   0.000  -0.000   1.198   0.000  -0.000   2.014
  0.000   0.000   2.014   0.000   0.000   3.399   0.000   0.000
  0.040   0.049   0.000   2.012  -0.000   0.000   3.395  -0.000
 -0.000  -0.000   0.000  -0.000   2.014   0.000  -0.000   3.399
  0.000   0.000  -0.000   0.000  -0.001  -0.000   0.000  -0.002
  0.000   0.000   0.008   0.000   0.000   0.015   0.000   0.000
 -0.002  -0.003  -0.000   0.002   0.000  -0.000   0.005   0.000
 -0.000  -0.000   0.000  -0.000   0.008   0.000  -0.000   0.015
 -0.000  -0.000  -0.001  -0.000  -0.000  -0.002  -0.000  -0.000
 total augmentation occupancy for first ion, spin component:           1
  8.277  -4.235   0.000   0.222  -0.000  -0.000  -0.072   0.000   0.000   0.000   0.121  -0.000  -0.000
 -4.235   2.298  -0.000  -0.276   0.000   0.000   0.069  -0.000  -0.000  -0.000  -0.053   0.000   0.000
  0.000  -0.000   2.988   0.000   0.000  -0.797  -0.000  -0.000   0.000   0.281  -0.000   0.000  -0.271
  0.222  -0.276   0.000   3.802  -0.000  -0.000  -1.018   0.000   0.000   0.000  -0.385  -0.000  -0.000
 -0.000   0.000   0.000  -0.000   2.988  -0.000   0.000  -0.797  -0.271  -0.000   0.000   0.281  -0.000
 -0.000   0.000  -0.797  -0.000  -0.000   0.220   0.000   0.000  -0.000  -0.076   0.000  -0.000   0.071
 -0.072   0.069  -0.000  -1.018   0.000   0.000   0.286  -0.000  -0.000  -0.000   0.100   0.000   0.000
  0.000  -0.000  -0.000   0.000  -0.797   0.000  -0.000   0.220   0.071   0.000  -0.000  -0.076   0.000
  0.000  -0.000   0.000   0.000  -0.271  -0.000  -0.000   0.071   0.056   0.000  -0.000  -0.035  -0.000
  0.000  -0.000   0.281   0.000  -0.000  -0.076  -0.000   0.000   0.000   0.069  -0.000   0.000  -0.035
  0.121  -0.053  -0.000  -0.385   0.000   0.000   0.100  -0.000  -0.000  -0.000   0.085   0.000   0.000
 -0.000   0.000   0.000  -0.000   0.281  -0.000   0.000  -0.076  -0.035   0.000   0.000   0.069  -0.000
 -0.000   0.000  -0.271  -0.000  -0.000   0.071   0.000   0.000  -0.000  -0.035   0.000  -0.000   0.056
 total augmentation occupancy for first ion, spin component:           2
 -0.000  -0.003   0.000   0.009   0.000  -0.000  -0.003   0.000  -0.000   0.000  -0.001  -0.000  -0.000
 -0.003   0.017  -0.000  -0.021  -0.000   0.000   0.003  -0.000   0.000  -0.000  -0.002   0.000   0.000
  0.000  -0.000   0.006   0.000  -0.000  -0.000   0.000   0.000   0.000  -0.003  -0.000   0.000   0.000
  0.009  -0.021   0.000   0.008  -0.000  -0.000   0.001   0.000   0.000   0.000   0.005   0.000   0.000
  0.000  -0.000  -0.000  -0.000   0.006  -0.000   0.000  -0.000   0.000  -0.000  -0.000  -0.003  -0.000
 -0.000   0.000  -0.000  -0.000  -0.000  -0.000  -0.000  -0.000  -0.000   0.000   0.000  -0.000  -0.000
 -0.003   0.003   0.000   0.001   0.000  -0.000  -0.001  -0.000  -0.000  -0.000  -0.001  -0.000  -0.000
  0.000  -0.000   0.000   0.000  -0.000  -0.000  -0.000  -0.000  -0.000   0.000   0.000   0.000   0.000
 -0.000   0.000   0.000   0.000   0.000  -0.000  -0.000  -0.000  -0.000  -0.000   0.000  -0.000  -0.000
  0.000  -0.000  -0.003   0.000  -0.000   0.000  -0.000   0.000  -0.000   0.000   0.000  -0.000  -0.000
 -0.001  -0.002  -0.000   0.005  -0.000   0.000  -0.001   0.000   0.000   0.000  -0.000  -0.000   0.000
 -0.000   0.000   0.000   0.000  -0.003  -0.000  -0.000   0.000  -0.000  -0.000  -0.000   0.000   0.000
 -0.000   0.000   0.000   0.000  -0.000  -0.000  -0.000   0.000  -0.000  -0.000   0.000   0.000  -0.000


------------------------ aborting loop because EDIFF is reached ----------------------------------------


 


 total charge     
 
# of ion       s       p       d       tot
------------------------------------------
    1        1.087   1.247   0.233   2.567
    2        1.087   1.247   0.233   2.567
    3        0.383   0.516   7.426   8.325
    4        1.342   2.357   0.000   3.698
    5        1.342   2.357   0.000   3.698
    6        1.337   2.389   0.000   3.726
    7        1.337   2.389   0.000   3.726
--------------------------------------------------
tot          7.914  12.503   7.891  28.308
 


 magnetization (x)
 
# of ion       s       p       d       tot
------------------------------------------
    1        0.010   0.007   0.000   0.017
    2        0.010   0.007   0.000   0.017
    3        0.006   0.007   1.153   1.166
    4        0.017  -0.111   0.000  -0.095
    5        0.017  -0.111   0.000  -0.095
    6        0.000   0.006   0.000   0.006
    7        0.000   0.006   0.000   0.006
--------------------------------------------------
tot          0.061  -0.190   1.153   1.024
 
    FORLOC:  cpu time    0.0012: real time    0.0012
    FORHF :  cpu time 9380.7165: real time 9399.7496
    FORNL :  cpu time    0.1863: real time    0.1868
    STRESS:  cpu time    2.9279: real time    2.9342
    FORCOR:  cpu time    0.0469: real time    0.0471
    OFIELD:  cpu time    0.0001: real time    0.0001

 ---------------------------------------------------------------------------------------------

         DFTD3 V3.0 Rev 1        
 IVDW         = 11
 DF pbesol    
 parameters
 VDW_S6       =    1.0000
 VDW_S8       =    0.6120
 VDW_SR       =    1.3450
 rs18     =    1.0000
 alpha6   =   14.0000
 alpha8   =   16.0000
 k1-k3    =   16.0000    1.3333   -4.0000
 VDW_RADIUS   =   50.2022 A
 VDW_CNRADIUS =   21.1671 A
 Edisp (eV)   -1.07892

 E6    (eV) :    -0.3882
 E8    (eV) :    -0.6908
 % E8        : 64.02
    FORVDW:  cpu time    0.0288: real time    0.0303

  FORCE on cell =-STRESS in cart. coord.  units (eV):
  Direction    XX          YY          ZZ          XY          YZ          ZX
  --------------------------------------------------------------------------------------
  Alpha Z    32.81390    32.81390    32.81390
  Ewald   12800.27761 12800.27733-14075.88002    -0.00013    -0.00023     0.00019
  Hartree 13210.30068 13210.30070-13002.09720     0.00001    -0.00001    -0.00001
  E(xc)    -115.76723  -115.76723  -116.53856    -0.00000    -0.00000     0.00001
  Local  -26717.44805-26717.44822 26369.66422    -0.00008     0.00019    -0.00013
  n-local   333.31200   334.39392   333.59972    -2.92919    -0.63603    -0.65847
  augment    86.24145    86.24178    88.25896     0.00027     0.00001    -0.00003
  Kinetic   432.37148   438.98289   434.41886    -5.19452    -0.07408     1.20723
  Fock            NaN         NaN         NaN         NaN         NaN         NaN
  vdW        -1.17325    -1.17325    -1.20254     0.00000    -0.00000    -0.00000
  -------------------------------------------------------------------------------------
  Total           NaN         NaN         NaN         NaN         NaN         NaN
  in kB           NaN         NaN         NaN         NaN         NaN         NaN
  external pressure =         NaN kB  Pullay stress =        0.00 kB


 VOLUME and BASIS-vectors are now :
 -----------------------------------------------------------------------------
  energy-cutoff  :      520.00
  volume of cell :      316.88
      direct lattice vectors                 reciprocal lattice vectors
     3.560145166  0.000000000  0.000000000     0.280887423  0.162170389  0.000000000
    -1.780072583  3.083176921  0.000000000     0.000000000  0.324340778  0.000000000
     0.000000000  0.000000000 28.868563000     0.000000000  0.000000000  0.034639757

  length of vectors
     3.560145166  3.560145830 28.868563000     0.324340838  0.324340778  0.034639757


 FORCES acting on ions:
    Electron-Ion                     Ewald-Force                    Non-Local-Force
 -----------------------------------------------------------------------------------------------
   0.198E-04 -.202E-04 -.417E+03   0.107E-03 -.476E-04 0.416E+03   0.120E-16 -.272E-17 0.280E+00
   -.198E-04 0.202E-04 0.417E+03   -.107E-03 0.476E-04 -.416E+03   -.253E-17 -.366E-17 -.280E+00
   0.634E-08 -.785E-09 0.260E-07   0.434E-15 0.265E-13 -.568E-13   -.766E-22 0.147E-21 -.944E-22
   -.780E-03 0.419E-03 0.471E+03   -.209E-03 0.158E-03 -.467E+03   -.104E-16 0.268E-17 -.485E+01
   0.780E-03 -.419E-03 -.471E+03   0.209E-03 -.158E-03 0.467E+03   -.687E-17 0.167E-17 0.485E+01
   -.916E-03 0.535E-03 -.100E+04   -.109E-03 0.476E-04 0.101E+04   0.905E-16 0.625E-17 -.505E+01
   0.916E-03 -.535E-03 0.100E+04   0.109E-03 -.476E-04 -.101E+04   -.598E-16 0.482E-17 0.505E+01
 -----------------------------------------------------------------------------------------------
   -.791E-05 0.154E-04 0.692E-04   0.459E-14 0.322E-13 0.114E-12   0.229E-16 0.906E-17 0.000E+00
 
 
 POSITION                                       TOTAL-FORCE (eV/Angst)
 -----------------------------------------------------------------------------------
     -0.00000      2.05545     17.74970              NaN           NaN           NaN
      1.78007      1.02772     11.11886              NaN           NaN           NaN
      0.00000      0.00000     14.43428              NaN           NaN           NaN
      1.78007      1.02772     13.38319              NaN           NaN           NaN
     -0.00000      2.05545     15.48537              NaN           NaN           NaN
      1.78007      1.02772     18.83975              NaN           NaN           NaN
     -0.00000      2.05545     10.02881              NaN           NaN           NaN
 -----------------------------------------------------------------------------------
    total drift:                                     NaN           NaN           NaN


--------------------------------------------------------------------------------------------------------



  FREE ENERGIE OF THE ION-ELECTRON SYSTEM (eV)
  ---------------------------------------------------
  free  energy   TOTEN  =       -44.57970094 eV

  energy  without entropy=      -44.57929069  energy(sigma->0) =      -44.57949582
 


--------------------------------------------------------------------------------------------------------


    POTLOK:  cpu time    0.3134: real time    0.3141


--------------------------------------------------------------------------------------------------------


     LOOP+:  cpu time**********: real time**********
    4ORBIT:  cpu time    0.0000: real time    0.0000
 


 total charge     
 
# of ion       s       p       d       tot
------------------------------------------
    1        1.087   1.247   0.233   2.567
    2        1.087   1.247   0.233   2.567
    3        0.383   0.516   7.426   8.325
    4        1.342   2.357   0.000   3.698
    5        1.342   2.357   0.000   3.698
    6        1.337   2.389   0.000   3.726
    7        1.337   2.389   0.000   3.726
--------------------------------------------------
tot          7.914  12.503   7.891  28.308
 


 magnetization (x)
 
# of ion       s       p       d       tot
------------------------------------------
    1        0.010   0.007   0.000   0.017
    2        0.010   0.007   0.000   0.017
    3        0.006   0.007   1.153   1.166
    4        0.017  -0.111   0.000  -0.095
    5        0.017  -0.111   0.000  -0.095
    6        0.000   0.006   0.000   0.006
    7        0.000   0.006   0.000   0.006
--------------------------------------------------
tot          0.061  -0.190   1.153   1.024
 

 total amount of memory used by VASP MPI-rank0   301455. kBytes
=======================================================================

   base      :      30000. kBytes
   nonl-proj :     209986. kBytes
   fftplans  :        673. kBytes
   grid      :       6343. kBytes
   one-center:        217. kBytes
   HF        :        194. kBytes
   nonlr-proj:       6735. kBytes
   wavefun   :      47307. kBytes
 
  
  
 General timing and accounting informations for this job:
 ========================================================
  
                  Total CPU time used (sec):   170913.234
                            User time (sec):   170037.077
                          System time (sec):      876.159
                         Elapsed time (sec):   171289.221
  
                   Maximum memory used (kb):      807096.
                   Average memory used (kb):           0.
  
                          Minor page faults:     74298331
                          Major page faults:            0
                 Voluntary context switches:      1393174
