unknown system                          
           1
     3.560145    0.000000    0.000000
    -1.780073    3.083177    0.000000
     0.000000    0.000000   28.868563
   Ga   Co   S 
   2   1   4
Direct configuration=     1
   0.33333300  0.66666700  0.61484527
   0.66666700  0.33333300  0.38515473
   0.00000000  0.00000000  0.50000000
   0.66666700  0.33333300  0.46359046
   0.33333300  0.66666700  0.53640954
   0.66666700  0.33333300  0.65260444
   0.33333300  0.66666700  0.34739556
