 vasp.5.4.4.18Apr17-6-g9f103f2a35 (build Aug 01 2018 12:10:22) complex          
  
 executed on        TETRALITH-B01 date 2021.12.16  03:06:29
 running on  128 total cores
 distrk:  each k-point on  128 cores,    1 groups
 distr:  one band on NCORES_PER_BAND=   1 cores,  128 groups


--------------------------------------------------------------------------------------------------------


 INCAR:
 POTCAR:    PAW_PBE Ga 08Apr2002                  
 POTCAR:    PAW_PBE Co 02Aug2007                  
 POTCAR:    PAW_PBE S 06Sep2000                   

 ----------------------------------------------------------------------------- 
|                                                                             |
|           W    W    AA    RRRRR   N    N  II  N    N   GGGG   !!!           |
|           W    W   A  A   R    R  NN   N  II  NN   N  G    G  !!!           |
|           W    W  A    A  R    R  N N  N  II  N N  N  G       !!!           |
|           W WW W  AAAAAA  RRRRR   N  N N  II  N  N N  G  GGG   !            |
|           WW  WW  A    A  R   R   N   NN  II  N   NN  G    G                |
|           W    W  A    A  R    R  N    N  II  N    N   GGGG   !!!           |
|                                                                             |
|      For optimal performance we recommend to set                            |
|        NCORE= 4 - approx SQRT( number of cores)                             |
|      NCORE specifies how many cores store one orbital (NPAR=cpu/NCORE).     |
|      This setting can  greatly improve the performance of VASP for DFT.     |
|      The default,   NCORE=1            might be grossly inefficient         |
|      on modern multi-core architectures or massively parallel machines.     |
|      Do your own testing !!!!                                               |
|      Unfortunately you need to use the default for GW and RPA calculations. |
|      (for HF NCORE is supported but not extensively tested yet)             |
|                                                                             |
 ----------------------------------------------------------------------------- 

 POTCAR:    PAW_PBE Ga 08Apr2002                  
   VRHFIN =Ga: s2p1                                                             
   LEXCH  = PE                                                                  
   EATOM  =    58.8688 eV,    4.3267 Ry                                         
                                                                                
   TITEL  = PAW_PBE Ga 08Apr2002                                                
   LULTRA =        F    use ultrasoft PP ?                                      
   IUNSCR =        1    unscreen: 0-lin 1-nonlin 2-no                           
   RPACOR =    2.170    partial core radius                                     
   POMASS =   69.723; ZVAL   =    3.000    mass and valenz                      
   RCORE  =    2.600    outmost cutoff radius                                   
   RWIGS  =    2.650; RWIGS  =    1.402    wigner-seitz radius (au A)           
   ENMAX  =  134.678; ENMIN  =  101.009 eV                                      
   ICORE  =        3    local potential                                         
   LCOR   =        T    correct aug charges                                     
   LPAW   =        T    paw PP                                                  
   EAUG   =  320.264                                                            
   DEXC   =    0.000                                                            
   RMAX   =    2.658    core radius for proj-oper                               
   RAUG   =    1.300    factor for augmentation sphere                          
   RDEP   =    2.684    radius for radial grids                                 
   RDEPT  =    2.308    core radius for aug-charge                              
                                                                                
   Atomic configuration                                                         
   10 entries                                                                   
     n  l   j            E        occ.                                          
     1  0  0.50    -10228.7830   2.0000                                         
     2  0  0.50     -1262.1604   2.0000                                         
     2  1  1.50     -1098.6333   6.0000                                         
     3  0  0.50      -148.1110   2.0000                                         
     3  1  1.50       -98.8436   6.0000                                         
     3  2  2.50       -19.1549  10.0000                                         
     4  0  0.50        -8.9483   2.0000                                         
     4  1  0.50        -2.5791   1.0000                                         
     4  2  1.50         5.4423   0.0000                                         
     4  3  2.50        -2.7416   0.0000                                         
   Description                                                                  
     l       E           TYP  RCUT    TYP  RCUT                                 
     0     -8.9483097     23  2.600                                             
     0     -5.8232215     23  2.600                                             
     1     -2.5790793     23  2.600                                             
     1      5.2230115     23  2.600                                             
     2      1.3605826     23  2.600                                             
     3     -1.3605826      7  2.600                                             
  local pseudopotential read in
  partial core-charges read in
  partial kinetic energy density read in
  atomic valenz-charges read in
  non local Contribution for L=           0  read in
    real space projection operators read in
  non local Contribution for L=           0  read in
    real space projection operators read in
  non local Contribution for L=           1  read in
    real space projection operators read in
  non local Contribution for L=           1  read in
    real space projection operators read in
  non local Contribution for L=           2  read in
    real space projection operators read in
    PAW grid and wavefunctions read in
 
   number of l-projection  operators is LMAX  =           5
   number of lm-projection operators is LMMAX =          13
 
 POTCAR:    PAW_PBE Co 02Aug2007                  
   VRHFIN =Co: d8 s1                                                            
   LEXCH  = PE                                                                  
   EATOM  =   813.3670 eV,   59.7808 Ry                                         
                                                                                
   TITEL  = PAW_PBE Co 02Aug2007                                                
   LULTRA =        F    use ultrasoft PP ?                                      
   IUNSCR =        1    unscreen: 0-lin 1-nonlin 2-no                           
   RPACOR =    2.000    partial core radius                                     
   POMASS =   58.933; ZVAL   =    9.000    mass and valenz                      
   RCORE  =    2.300    outmost cutoff radius                                   
   RWIGS  =    2.460; RWIGS  =    1.302    wigner-seitz radius (au A)           
   ENMAX  =  267.968; ENMIN  =  200.976 eV                                      
   RCLOC  =    1.203    cutoff for local pot                                    
   LCOR   =        T    correct aug charges                                     
   LPAW   =        T    paw PP                                                  
   EAUG   =  477.818                                                            
   DEXC   =    0.000                                                            
   RMAX   =    2.360    core radius for proj-oper                               
   RAUG   =    1.300    factor for augmentation sphere                          
   RDEP   =    2.393    radius for radial grids                                 
   RDEPT  =    1.864    core radius for aug-charge                              
                                                                                
   Atomic configuration                                                         
    9 entries                                                                   
     n  l   j            E        occ.                                          
     1  0  0.50     -7587.6674   2.0000                                         
     2  0  0.50      -893.6084   2.0000                                         
     2  1  1.50      -764.5805   6.0000                                         
     3  0  0.50       -97.5973   2.0000                                         
     3  1  1.50       -60.9648   6.0000                                         
     3  2  2.50        -4.2382   8.0000                                         
     4  0  0.50        -4.3746   1.0000                                         
     4  1  1.50        -4.0817   0.0000                                         
     4  3  2.50        -1.3606   0.0000                                         
   Description                                                                  
     l       E           TYP  RCUT    TYP  RCUT                                 
     2     -4.2382362     23  2.300                                             
     2     -5.5988188     23  2.300                                             
     0     -4.3745797     23  2.300                                             
     0      5.7660125     23  2.300                                             
     1     -2.7211652     23  2.300                                             
     1     16.9860234     23  2.300                                             
  local pseudopotential read in
  partial core-charges read in
  partial kinetic energy density read in
  atomic valenz-charges read in
  non local Contribution for L=           2  read in
    real space projection operators read in
  non local Contribution for L=           2  read in
    real space projection operators read in
  non local Contribution for L=           0  read in
    real space projection operators read in
  non local Contribution for L=           0  read in
    real space projection operators read in
  non local Contribution for L=           1  read in
    real space projection operators read in
  non local Contribution for L=           1  read in
    real space projection operators read in
    PAW grid and wavefunctions read in
 
   number of l-projection  operators is LMAX  =           6
   number of lm-projection operators is LMMAX =          18
 
 POTCAR:    PAW_PBE S 06Sep2000                   
   VRHFIN =S : s2p4                                                             
   LEXCH  = PE                                                                  
   EATOM  =   276.8230 eV,   20.3459 Ry                                         
                                                                                
   TITEL  = PAW_PBE S 06Sep2000                                                 
   LULTRA =        F    use ultrasoft PP ?                                      
   IUNSCR =        1    unscreen: 0-lin 1-nonlin 2-no                           
   RPACOR =    1.500    partial core radius                                     
   POMASS =   32.066; ZVAL   =    6.000    mass and valenz                      
   RCORE  =    1.900    outmost cutoff radius                                   
   RWIGS  =    2.200; RWIGS  =    1.164    wigner-seitz radius (au A)           
   ENMAX  =  258.689; ENMIN  =  194.016 eV                                      
   ICORE  =        2    local potential                                         
   LCOR   =        T    correct aug charges                                     
   LPAW   =        T    paw PP                                                  
   EAUG   =  335.092                                                            
   DEXC   =    0.000                                                            
   RMAX   =    1.942    core radius for proj-oper                               
   RAUG   =    1.300    factor for augmentation sphere                          
   RDEP   =    1.954    radius for radial grids                                 
   RDEPT  =    1.744    core radius for aug-charge                              
                                                                                
   Atomic configuration                                                         
    6 entries                                                                   
     n  l   j            E        occ.                                          
     1  0  0.50     -2405.8406   2.0000                                         
     2  0  0.50      -211.7007   2.0000                                         
     2  1  1.50      -156.4958   6.0000                                         
     3  0  0.50       -17.2562   2.0000                                         
     3  1  0.50        -7.0085   4.0000                                         
     3  2  1.50        -6.8029   0.0000                                         
   Description                                                                  
     l       E           TYP  RCUT    TYP  RCUT                                 
     0    -17.2561641     23  1.900                                             
     0    -15.8743224     23  1.900                                             
     1     -7.0085400     23  1.900                                             
     1     -2.7779785     23  1.900                                             
     2     -6.8029130     23  1.900                                             
  local pseudopotential read in
  partial core-charges read in
  partial kinetic energy density read in
  atomic valenz-charges read in
  non local Contribution for L=           0  read in
    real space projection operators read in
  non local Contribution for L=           0  read in
    real space projection operators read in
  non local Contribution for L=           1  read in
    real space projection operators read in
  non local Contribution for L=           1  read in
    real space projection operators read in
    PAW grid and wavefunctions read in
 
   number of l-projection  operators is LMAX  =           4
   number of lm-projection operators is LMMAX =           8
 

 ----------------------------------------------------------------------------- 
|                                                                             |
|  ADVICE TO THIS USER RUNNING 'VASP/VAMP'   (HEAR YOUR MASTER'S VOICE ...):  |
|                                                                             |
|      You enforced a specific xc-type in the INCAR file,                     |
|      a different type was found on the POTCAR file                          |
|          I HOPE YOU KNOW, WHAT YOU ARE  DOING                               |
|                                                                             |
 ----------------------------------------------------------------------------- 

  PAW_PBE Ga 08Apr2002                  :
 energy of atom  1       EATOM=  -58.8688
 kinetic energy error for atom=    0.0000 (will be added to EATOM!!)
  PAW_PBE Co 02Aug2007                  :
 energy of atom  2       EATOM= -813.3670
 kinetic energy error for atom=    0.0028 (will be added to EATOM!!)
  PAW_PBE S 06Sep2000                   :
 energy of atom  3       EATOM= -276.8230
 kinetic energy error for atom=    0.0016 (will be added to EATOM!!)
 
 
 POSCAR: Ga2 Co1 S4                              
  positions in direct lattice
  velocities in cartesian coordinates
 exchange correlation table for  LEXCH =       14
   RHO(1)=    0.500       N(1)  =     2000
   RHO(2)=  100.500       N(2)  =     4000
 


--------------------------------------------------------------------------------------------------------


 ion  position               nearest neighbor table
   1  0.333  0.667  0.615-   5 2.26   6 2.33   6 2.33   6 2.33
   2  0.667  0.333  0.385-   4 2.26   7 2.33   7 2.33   7 2.33
   3  0.000  0.000  0.500-   4 2.31   5 2.31   4 2.31   5 2.31   4 2.31   5 2.31
   4  0.667  0.333  0.464-   2 2.26   3 2.31   3 2.31   3 2.31
   5  0.333  0.667  0.536-   1 2.26   3 2.31   3 2.31   3 2.31
   6  0.667  0.333  0.653-   1 2.33   1 2.33   1 2.33
   7  0.333  0.667  0.347-   2 2.33   2 2.33   2 2.33
 
  LATTYP: Found a hexagonal cell.
 ALAT       =     3.5601458298
 C/A-ratio  =     8.1088147452
  
  Lattice vectors:
  
 A1 = (   3.5601451665,   0.0000000000,   0.0000000000)
 A2 = (  -1.7800725832,   3.0831769213,   0.0000000000)
 A3 = (   0.0000000000,   0.0000000000,  28.8685630000)


Analysis of symmetry for initial positions (statically):
=====================================================================
 Subroutine PRICEL returns:
 Original cell was already a primitive cell.
 

 Routine SETGRP: Setting up the symmetry group for a 
 hexagonal supercell.


 Subroutine GETGRP returns: Found 12 space group operations
 (whereof 12 operations were pure point group operations)
 out of a pool of 24 trial point group operations.


The static configuration has the point symmetry D_3d.


Analysis of symmetry for dynamics (positions and initial velocities):
=====================================================================
 Subroutine PRICEL returns:
 Original cell was already a primitive cell.
 

 Routine SETGRP: Setting up the symmetry group for a 
 hexagonal supercell.


 Subroutine GETGRP returns: Found 12 space group operations
 (whereof 12 operations were pure point group operations)
 out of a pool of 24 trial point group operations.


The dynamic configuration has the point symmetry D_3d.


Analysis of structural, dynamic, and magnetic symmetry:
=====================================================================
 Subroutine PRICEL returns:
 Original cell was already a primitive cell.
 

 Routine SETGRP: Setting up the symmetry group for a 
 hexagonal supercell.


 Subroutine GETGRP returns: Found 12 space group operations
 (whereof 12 operations were pure point group operations)
 out of a pool of 24 trial point group operations.


The magnetic configuration has the point symmetry D_3d.


 Subroutine INISYM returns: Found 12 space group operations
 (whereof 12 operations are pure point group operations),
 and found     1 'primitive' translations

 
 
 KPOINTS: K-Path Generated by VASPKIT.            
  interpolating k-points between supplied coordinates
  k-points in reciprocal lattice
Space group operators:
 irot       det(A)        alpha          n_x          n_y          n_z        tau_x        tau_y        tau_z
    1     1.000000     0.000000     1.000000     0.000000     0.000000     0.000000     0.000000     0.000000
    2    -1.000000     0.000000     1.000000     0.000000     0.000000     0.000000     0.000000     0.000000
    3     1.000000   120.000000     0.000000     0.000000    -1.000000     0.000000     0.000000     0.000000
    4    -1.000000   120.000000     0.000000     0.000000    -1.000000     0.000000     0.000000     0.000000
    5     1.000000   120.000000     0.000000     0.000000     1.000000     0.000000     0.000000     0.000000
    6    -1.000000   120.000000     0.000000     0.000000     1.000000     0.000000     0.000000     0.000000
    7     1.000000   180.000000     1.000000    -0.000000     0.000000     0.000000     0.000000     0.000000
    8    -1.000000   180.000000     1.000000    -0.000000     0.000000     0.000000     0.000000     0.000000
    9     1.000000   180.000000     0.500000    -0.866025     0.000000     0.000000     0.000000     0.000000
   10    -1.000000   180.000000     0.500000    -0.866025     0.000000     0.000000     0.000000     0.000000
   11     1.000000   180.000000    -0.500000    -0.866025     0.000000     0.000000     0.000000     0.000000
   12    -1.000000   180.000000    -0.500000    -0.866025     0.000000     0.000000     0.000000     0.000000


--------------------------------------------------------------------------------------------------------




 Dimension of arrays:
   k-points           NKPTS =     60   k-points in BZ     NKDIM =     60   number of bands    NBANDS=    128
   number of dos      NEDOS =   3501   number of ions     NIONS =      7
   non local maximal  LDIM  =      6   non local SUM 2l+1 LMDIM =     18
   total plane-waves  NPLWV =  64800
   max r-space proj   IRMAX =      1   max aug-charges    IRDMAX=  14895
   dimension x,y,z NGX =    20 NGY =   20 NGZ =  162
   dimension x,y,z NGXF=    40 NGYF=   40 NGZF=  324
   support grid    NGXF=    40 NGYF=   40 NGZF=  324
   ions per type =               2   1   4
   NGX,Y,Z   is equivalent  to a cutoff of   9.34,  9.34,  9.33 a.u.
   NGXF,Y,Z  is equivalent  to a cutoff of  18.68, 18.68, 18.66 a.u.

 SYSTEM =  unknown system                          
 POSCAR =  Ga2 Co1 S4                              

 Startparameter for this run:
   NWRITE =      2    write-flag & timer
   PREC   = normal    normal or accurate (medium, high low for compatibility)
   ISTART =      0    job   : 0-new  1-cont  2-samecut
   ICHARG =      2    charge: 1-file 2-atom 10-const
   ISPIN  =      2    spin polarized calculation?
   LNONCOLLINEAR =      F non collinear calculations
   LSORBIT =      F    spin-orbit coupling
   INIWAV =      1    electr: 0-lowe 1-rand  2-diag
   LASPH  =      F    aspherical Exc in radial PAW
   METAGGA=      F    non-selfconsistent MetaGGA calc.

 Electronic Relaxation 1
   ENCUT  =  520.0 eV  38.22 Ry    6.18 a.u.   6.62  6.62 53.68*2*pi/ulx,y,z
   ENINI  =  520.0     initial cutoff
   ENAUG  =  477.8 eV  augmentation charge cutoff
   NELM   =     40;   NELMIN=  6; NELMDL=  0     # of ELM steps 
   EDIFF  = 0.1E-05   stopping-criterion for ELM
   LREAL  =      F    real-space projection
   NLSPLINE    = F    spline interpolate recip. space projectors
   LCOMPAT=      F    compatible to vasp.4.4
   GGA_COMPAT  = T    GGA compatible to vasp.4.4-vasp.4.6
   LMAXPAW     = -100 max onsite density
   LMAXMIX     =    2 max onsite mixed and CHGCAR
   VOSKOWN=      0    Vosko Wilk Nusair interpolation
   ROPT   =    0.00000   0.00000   0.00000
 Ionic relaxation
   EDIFFG = -.1E-01   stopping-criterion for IOM
   NSW    =      0    number of steps for IOM
   NBLOCK =      1;   KBLOCK =      1    inner block; outer block 
   IBRION =     -1    ionic relax: 0-MD 1-quasi-New 2-CG
   NFREE  =      0    steps in history (QN), initial steepest desc. (CG)
   ISIF   =      3    stress and relaxation
   IWAVPR =     10    prediction:  0-non 1-charg 2-wave 3-comb
   ISYM   =      2    0-nonsym 1-usesym 2-fastsym
   LCORR  =      T    Harris-Foulkes like correction to forces

   POTIM  = 0.5000    time-step for ionic-motion
   TEIN   =    0.0    initial temperature
   TEBEG  =    0.0;   TEEND  =   0.0 temperature during run
   SMASS  =  -3.00    Nose mass-parameter (am)
   estimated Nose-frequenzy (Omega)   =  0.10E-29 period in steps =****** mass=  -0.290E-27a.u.
   SCALEE = 1.0000    scale energy and forces
   NPACO  =    256;   APACO  = 16.0  distance and # of slots for P.C.
   PSTRESS=    0.0 pullay stress

  Mass of Ions in am
   POMASS =  69.72 58.93 32.07
  Ionic Valenz
   ZVAL   =   3.00  9.00  6.00
  Atomic Wigner-Seitz radii
   RWIGS  =  -1.00 -1.00 -1.00
  virtual crystal weights 
   VCA    =   1.00  1.00  1.00
   NELECT =      39.0000    total number of electrons
   NUPDOWN=      -1.0000    fix difference up-down

 DOS related values:
   EMIN   =  10.00;   EMAX   =-10.00  energy-range for DOS
   EFERMI =   0.00
   ISMEAR =     0;   SIGMA  =   0.02  broadening in eV -4-tet -1-fermi 0-gaus

 Electronic relaxation 2 (details)
   IALGO  =     38    algorithm
   LDIAG  =      T    sub-space diagonalisation (order eigenvalues)
   LSUBROT=      F    optimize rotation matrix (better conditioning)
   TURBO    =      0    0=normal 1=particle mesh
   IRESTART =      0    0=no restart 2=restart with 2 vectors
   NREBOOT  =      0    no. of reboots
   NMIN     =      0    reboot dimension
   EREF     =   0.00    reference energy to select bands
   IMIX   =      4    mixing-type and parameters
     AMIX     =   0.40;   BMIX     =  1.00
     AMIX_MAG =   1.60;   BMIX_MAG =  1.00
     AMIN     =   0.10
     WC   =   100.;   INIMIX=   1;  MIXPRE=   1;  MAXMIX= -45

 Intra band minimization:
   WEIMIN = 0.0000     energy-eigenvalue tresh-hold
   EBREAK =  0.20E-08  absolut break condition
   DEPER  =   0.30     relativ break condition  

   TIME   =   0.40     timestep for ELM

  volume/ion in A,a.u.               =      45.27       305.48
  Fermi-wavevector in a.u.,A,eV,Ry     =   0.814328  1.538856  9.022428  0.663130
  Thomas-Fermi vector in A             =   1.924215
 
 Write flags
   LWAVE        =      F    write WAVECAR
   LDOWNSAMPLE  =      F    k-point downsampling of WAVECAR
   LCHARG       =      F    write CHGCAR
   LVTOT        =      F    write LOCPOT, total local potential
   LVHAR        =      F    write LOCPOT, Hartree potential only
   LELF         =      F    write electronic localiz. function (ELF)
   LORBIT       =     11    0 simple, 1 ext, 2 COOP (PROOUT), +10 PAW based schemes


 Dipole corrections
   LMONO  =      F    monopole corrections only (constant potential shift)
   LDIPOL =      F    correct potential (dipole corrections)
   IDIPOL =      0    1-x, 2-y, 3-z, 4-all directions 
   EPSILON=  1.0000000 bulk dielectric constant

 Exchange correlation treatment:
   GGA     =    PS    GGA type
   LEXCH   =    14    internal setting for exchange type
   VOSKOWN=      0    Vosko Wilk Nusair interpolation
   LHFCALC =     F    Hartree Fock is set to
   LHFONE  =     F    Hartree Fock one center treatment
   AEXX    =    0.0000 exact exchange contribution

 Linear response parameters
   LEPSILON=     F    determine dielectric tensor
   LRPA    =     F    only Hartree local field effects (RPA)
   LNABLA  =     F    use nabla operator in PAW spheres
   LVEL    =     F    velocity operator in full k-point grid
   LINTERFAST=   F  fast interpolation
   KINTER  =     0    interpolate to denser k-point grid
   CSHIFT  =0.1000    complex shift for real part using Kramers Kronig
   OMEGAMAX=  -1.0    maximum frequency
   DEG_THRESHOLD= 0.2000000E-02 threshold for treating states as degnerate
   RTIME   =   -0.100 relaxation time in fs
  (WPLASMAI=    0.000 imaginary part of plasma frequency in eV, 0.658/RTIME)
   DFIELD  = 0.0000000 0.0000000 0.0000000 field for delta impulse in time
 
 Orbital magnetization related:
   ORBITALMAG=     F  switch on orbital magnetization
   LCHIMAG   =     F  perturbation theory with respect to B field
   DQ        =  0.001000  dq finite difference perturbation B field
   LLRAUG    =     F  two centre corrections for induced B field



--------------------------------------------------------------------------------------------------------


 Static calculation
 charge density and potential will be updated during run
 spin polarized calculation
 Variant of blocked Davidson
 Davidson routine will perform the subspace rotation
 perform sub-space diagonalisation
    after iterative eigenvector-optimisation
 modified Broyden-mixing scheme, WC =      100.0
 initial mixing is a Kerker type mixing with AMIX =  0.4000 and BMIX =      1.0000
 Hartree-type preconditioning will be used
 using additional bands          108
 reciprocal scheme for non local part
 use partial core corrections
 calculate Harris-corrections to forces 
   (improved forces if not selfconsistent)
 use gradient corrections 
 use of overlap-Matrix (Vanderbilt PP)
 Gauss-broadening in eV      SIGMA  =   0.02


--------------------------------------------------------------------------------------------------------


  energy-cutoff  :      520.00
  volume of cell :      316.88
      direct lattice vectors                 reciprocal lattice vectors
     3.560145166  0.000000000  0.000000000     0.280887423  0.162170389  0.000000000
    -1.780072583  3.083176921  0.000000000     0.000000000  0.324340778  0.000000000
     0.000000000  0.000000000 28.868563000     0.000000000  0.000000000  0.034639757

  length of vectors
     3.560145166  3.560145830 28.868563000     0.324340838  0.324340778  0.034639757


 
 k-points in units of 2pi/SCALE and weight: K-Path Generated by VASPKIT.            
   0.14044371  0.08108519  0.00000000       0.017
   0.13797979  0.08535284  0.00000000       0.017
   0.13551586  0.08962048  0.00000000       0.017
   0.13305194  0.09388812  0.00000000       0.017
   0.13058801  0.09815576  0.00000000       0.017
   0.12812409  0.10242340  0.00000000       0.017
   0.12566016  0.10669105  0.00000000       0.017
   0.12319624  0.11095869  0.00000000       0.017
   0.12073231  0.11522633  0.00000000       0.017
   0.11826839  0.11949397  0.00000000       0.017
   0.11580446  0.12376161  0.00000000       0.017
   0.11334054  0.12802925  0.00000000       0.017
   0.11087661  0.13229690  0.00000000       0.017
   0.10841269  0.13656454  0.00000000       0.017
   0.10594876  0.14083218  0.00000000       0.017
   0.10348484  0.14509982  0.00000000       0.017
   0.10102092  0.14936746  0.00000000       0.017
   0.09855699  0.15363511  0.00000000       0.017
   0.09609307  0.15790275  0.00000000       0.017
   0.09362914  0.16217039  0.00000000       0.017
   0.09362914  0.16217039  0.00000000       0.017
   0.08870129  0.15363511  0.00000000       0.017
   0.08377344  0.14509982  0.00000000       0.017
   0.07884559  0.13656454  0.00000000       0.017
   0.07391774  0.12802925  0.00000000       0.017
   0.06898989  0.11949397  0.00000000       0.017
   0.06406204  0.11095869  0.00000000       0.017
   0.05913419  0.10242340  0.00000000       0.017
   0.05420634  0.09388812  0.00000000       0.017
   0.04927850  0.08535284  0.00000000       0.017
   0.04435065  0.07681755  0.00000000       0.017
   0.03942280  0.06828227  0.00000000       0.017
   0.03449495  0.05974699  0.00000000       0.017
   0.02956710  0.05121170  0.00000000       0.017
   0.02463925  0.04267642  0.00000000       0.017
   0.01971140  0.03414113  0.00000000       0.017
   0.01478355  0.02560585  0.00000000       0.017
   0.00985570  0.01707057  0.00000000       0.017
   0.00492785  0.00853528  0.00000000       0.017
  -0.00000000 -0.00000000  0.00000000       0.017
   0.00000000  0.00000000  0.00000000       0.017
   0.00739177  0.00426764  0.00000000       0.017
   0.01478355  0.00853528  0.00000000       0.017
   0.02217532  0.01280293  0.00000000       0.017
   0.02956710  0.01707057  0.00000000       0.017
   0.03695887  0.02133821  0.00000000       0.017
   0.04435065  0.02560585  0.00000000       0.017
   0.05174242  0.02987349  0.00000000       0.017
   0.05913419  0.03414113  0.00000000       0.017
   0.06652597  0.03840878  0.00000000       0.017
   0.07391774  0.04267642  0.00000000       0.017
   0.08130952  0.04694406  0.00000000       0.017
   0.08870129  0.05121170  0.00000000       0.017
   0.09609307  0.05547934  0.00000000       0.017
   0.10348484  0.05974699  0.00000000       0.017
   0.11087661  0.06401463  0.00000000       0.017
   0.11826839  0.06828227  0.00000000       0.017
   0.12566016  0.07254991  0.00000000       0.017
   0.13305194  0.07681755  0.00000000       0.017
   0.14044371  0.08108519  0.00000000       0.017
 
 k-points in reciprocal lattice and weights: K-Path Generated by VASPKIT.            
   0.50000000  0.00000000  0.00000000       0.017
   0.49122807  0.01754386  0.00000000       0.017
   0.48245614  0.03508772  0.00000000       0.017
   0.47368421  0.05263158  0.00000000       0.017
   0.46491228  0.07017544  0.00000000       0.017
   0.45614035  0.08771930  0.00000000       0.017
   0.44736842  0.10526316  0.00000000       0.017
   0.43859649  0.12280702  0.00000000       0.017
   0.42982456  0.14035088  0.00000000       0.017
   0.42105263  0.15789474  0.00000000       0.017
   0.41228070  0.17543860  0.00000000       0.017
   0.40350877  0.19298246  0.00000000       0.017
   0.39473684  0.21052632  0.00000000       0.017
   0.38596491  0.22807018  0.00000000       0.017
   0.37719298  0.24561404  0.00000000       0.017
   0.36842105  0.26315789  0.00000000       0.017
   0.35964912  0.28070175  0.00000000       0.017
   0.35087719  0.29824561  0.00000000       0.017
   0.34210526  0.31578947  0.00000000       0.017
   0.33333333  0.33333333  0.00000000       0.017
   0.33333333  0.33333333  0.00000000       0.017
   0.31578947  0.31578947  0.00000000       0.017
   0.29824561  0.29824561  0.00000000       0.017
   0.28070175  0.28070175  0.00000000       0.017
   0.26315789  0.26315789  0.00000000       0.017
   0.24561404  0.24561404  0.00000000       0.017
   0.22807018  0.22807018  0.00000000       0.017
   0.21052632  0.21052632  0.00000000       0.017
   0.19298246  0.19298246  0.00000000       0.017
   0.17543860  0.17543860  0.00000000       0.017
   0.15789474  0.15789474  0.00000000       0.017
   0.14035088  0.14035088  0.00000000       0.017
   0.12280702  0.12280702  0.00000000       0.017
   0.10526316  0.10526316  0.00000000       0.017
   0.08771930  0.08771930  0.00000000       0.017
   0.07017544  0.07017544  0.00000000       0.017
   0.05263158  0.05263158  0.00000000       0.017
   0.03508772  0.03508772  0.00000000       0.017
   0.01754386  0.01754386  0.00000000       0.017
  -0.00000000 -0.00000000  0.00000000       0.017
   0.00000000  0.00000000  0.00000000       0.017
   0.02631579  0.00000000  0.00000000       0.017
   0.05263158  0.00000000  0.00000000       0.017
   0.07894737  0.00000000  0.00000000       0.017
   0.10526316  0.00000000  0.00000000       0.017
   0.13157895  0.00000000  0.00000000       0.017
   0.15789474  0.00000000  0.00000000       0.017
   0.18421053  0.00000000  0.00000000       0.017
   0.21052632  0.00000000  0.00000000       0.017
   0.23684211  0.00000000  0.00000000       0.017
   0.26315789  0.00000000  0.00000000       0.017
   0.28947368  0.00000000  0.00000000       0.017
   0.31578947  0.00000000  0.00000000       0.017
   0.34210526  0.00000000  0.00000000       0.017
   0.36842105  0.00000000  0.00000000       0.017
   0.39473684  0.00000000  0.00000000       0.017
   0.42105263  0.00000000  0.00000000       0.017
   0.44736842  0.00000000  0.00000000       0.017
   0.47368421  0.00000000  0.00000000       0.017
   0.50000000  0.00000000  0.00000000       0.017
 
 position of ions in fractional coordinates (direct lattice) 
   0.33333300  0.66666700  0.61484527
   0.66666700  0.33333300  0.38515473
   0.00000000  0.00000000  0.50000000
   0.66666700  0.33333300  0.46359046
   0.33333300  0.66666700  0.53640954
   0.66666700  0.33333300  0.65260444
   0.33333300  0.66666700  0.34739556
 
 position of ions in cartesian coordinates  (Angst):
  -0.00000178  2.05545231 17.74969939
   1.78007436  1.02772461 11.11886361
   0.00000000  0.00000000 14.43428150
   1.78007436  1.02772461 13.38319043
  -0.00000178  2.05545231 15.48537257
   1.78007436  1.02772461 18.83975227
  -0.00000178  2.05545231 10.02881073
 


--------------------------------------------------------------------------------------------------------


 k-point  1 :   0.5000 0.0000 0.0000  plane waves:    8490
 k-point  2 :   0.4912 0.0175 0.0000  plane waves:    8482
 k-point  3 :   0.4825 0.0351 0.0000  plane waves:    8500
 k-point  4 :   0.4737 0.0526 0.0000  plane waves:    8506
 k-point  5 :   0.4649 0.0702 0.0000  plane waves:    8518
 k-point  6 :   0.4561 0.0877 0.0000  plane waves:    8494
 k-point  7 :   0.4474 0.1053 0.0000  plane waves:    8494
 k-point  8 :   0.4386 0.1228 0.0000  plane waves:    8496
 k-point  9 :   0.4298 0.1404 0.0000  plane waves:    8506
 k-point 10 :   0.4211 0.1579 0.0000  plane waves:    8498
 k-point 11 :   0.4123 0.1754 0.0000  plane waves:    8514
 k-point 12 :   0.4035 0.1930 0.0000  plane waves:    8506
 k-point 13 :   0.3947 0.2105 0.0000  plane waves:    8506
 k-point 14 :   0.3860 0.2281 0.0000  plane waves:    8512
 k-point 15 :   0.3772 0.2456 0.0000  plane waves:    8494
 k-point 16 :   0.3684 0.2632 0.0000  plane waves:    8504
 k-point 17 :   0.3596 0.2807 0.0000  plane waves:    8528
 k-point 18 :   0.3509 0.2982 0.0000  plane waves:    8526
 k-point 19 :   0.3421 0.3158 0.0000  plane waves:    8524
 k-point 20 :   0.3333 0.3333 0.0000  plane waves:    8526
 k-point 21 :   0.3333 0.3333 0.0000  plane waves:    8526
 k-point 22 :   0.3158 0.3158 0.0000  plane waves:    8530
 k-point 23 :   0.2982 0.2982 0.0000  plane waves:    8509
 k-point 24 :   0.2807 0.2807 0.0000  plane waves:    8527
 k-point 25 :   0.2632 0.2632 0.0000  plane waves:    8527
 k-point 26 :   0.2456 0.2456 0.0000  plane waves:    8543
 k-point 27 :   0.2281 0.2281 0.0000  plane waves:    8553
 k-point 28 :   0.2105 0.2105 0.0000  plane waves:    8555
 k-point 29 :   0.1930 0.1930 0.0000  plane waves:    8529
 k-point 30 :   0.1754 0.1754 0.0000  plane waves:    8537
 k-point 31 :   0.1579 0.1579 0.0000  plane waves:    8539
 k-point 32 :   0.1404 0.1404 0.0000  plane waves:    8531
 k-point 33 :   0.1228 0.1228 0.0000  plane waves:    8541
 k-point 34 :   0.1053 0.1053 0.0000  plane waves:    8561
 k-point 35 :   0.0877 0.0877 0.0000  plane waves:    8577
 k-point 36 :   0.0702 0.0702 0.0000  plane waves:    8605
 k-point 37 :   0.0526 0.0526 0.0000  plane waves:    8627
 k-point 38 :   0.0351 0.0351 0.0000  plane waves:    8627
 k-point 39 :   0.0175 0.0175 0.0000  plane waves:    8605
 k-point 40 :  -0.0000-0.0000 0.0000  plane waves:    8603
 k-point 41 :   0.0000 0.0000 0.0000  plane waves:    8603
 k-point 42 :   0.0263 0.0000 0.0000  plane waves:    8625
 k-point 43 :   0.0526 0.0000 0.0000  plane waves:    8615
 k-point 44 :   0.0789 0.0000 0.0000  plane waves:    8607
 k-point 45 :   0.1053 0.0000 0.0000  plane waves:    8607
 k-point 46 :   0.1316 0.0000 0.0000  plane waves:    8601
 k-point 47 :   0.1579 0.0000 0.0000  plane waves:    8583
 k-point 48 :   0.1842 0.0000 0.0000  plane waves:    8559
 k-point 49 :   0.2105 0.0000 0.0000  plane waves:    8555
 k-point 50 :   0.2368 0.0000 0.0000  plane waves:    8557
 k-point 51 :   0.2632 0.0000 0.0000  plane waves:    8543
 k-point 52 :   0.2895 0.0000 0.0000  plane waves:    8532
 k-point 53 :   0.3158 0.0000 0.0000  plane waves:    8522
 k-point 54 :   0.3421 0.0000 0.0000  plane waves:    8520
 k-point 55 :   0.3684 0.0000 0.0000  plane waves:    8500
 k-point 56 :   0.3947 0.0000 0.0000  plane waves:    8512
 k-point 57 :   0.4211 0.0000 0.0000  plane waves:    8506
 k-point 58 :   0.4474 0.0000 0.0000  plane waves:    8512
 k-point 59 :   0.4737 0.0000 0.0000  plane waves:    8474
 k-point 60 :   0.5000 0.0000 0.0000  plane waves:    8490

 maximum and minimum number of plane-waves per node :      8627     8474

 maximum number of plane-waves:      8627
 maximum index in each direction: 
   IXMAX=    6   IYMAX=    6   IZMAX=   53
   IXMIN=   -7   IYMIN=   -6   IZMIN=  -53


 serial   3D FFT for wavefunctions
 parallel 3D FFT for charge:
    minimum data exchange during FFTs selected (reduces bandwidth)


 total amount of memory used by VASP MPI-rank0   280769. kBytes
=======================================================================

   base      :      30000. kBytes
   nonl-proj :     226582. kBytes
   fftplans  :        670. kBytes
   grid      :       6343. kBytes
   one-center:        217. kBytes
   wavefun   :      16957. kBytes
 
     INWAV:  cpu time    0.0000: real time    0.0000
 Broyden mixing: mesh for mixing (old mesh)
   NGX = 13   NGY = 13   NGZ =107
  (NGX  = 40   NGY  = 40   NGZ  =324)
  gives a total of  18083 points

 initial charge density was supplied:
 charge density of overlapping atoms calculated
 number of electron      39.0000000 magnetization       7.0000000
 keeping initial charge density in first step


--------------------------------------------------------------------------------------------------------


 Maximum index for augmentation-charges          437 (set IRDMAX)


--------------------------------------------------------------------------------------------------------


 First call to EWALD:  gamma=   0.260
 Maximum number of real-space cells 5x 5x 1
 Maximum number of reciprocal cells 2x 2x10

    FEWALD:  cpu time    0.0015: real time    0.0015


--------------------------------------- Iteration      1(   1)  ---------------------------------------


    POTLOK:  cpu time    0.0249: real time    0.0336
    SETDIJ:  cpu time    0.0066: real time    0.0066
     EDDAV:  cpu time   15.5907: real time   15.6243
       DOS:  cpu time    0.0031: real time    0.0032
    --------------------------------------------
      LOOP:  cpu time   15.6254: real time   15.6678

 eigenvalue-minimisations  : 30720
 total energy-change (2. order) : 0.7333822E+02  (-0.1699327E+04)
 number of electron      39.0000000 magnetization       7.0000000
 augmentation part       39.0000000 magnetization       7.0000000

 Free energy of the ion-electron system (eV)
  ---------------------------------------------------
  alpha Z        PSCENC =        32.81390211
  Ewald energy   TEWEN  =     11524.67585812
  -Hartree energ DENC   =    -13385.01819231
  -exchange      EXHF   =         0.00000000
  -V(xc)+E(xc)   XCENC  =        30.69888652
  PAW double counting   =      1711.68586003    -1704.53122651
  entropy T*S    EENTRO =        -0.00025304
  eigenvalues    EBANDS =      -171.38811308
  atomic energy  EATOM  =      2034.40150045
  Solvation  Ediel_sol  =         0.00000000
  ---------------------------------------------------
  free energy    TOTEN  =        73.33822230 eV

  energy without entropy =       73.33847534  energy(sigma->0) =       73.33834882


--------------------------------------------------------------------------------------------------------




--------------------------------------- Iteration      1(   2)  ---------------------------------------


     EDDAV:  cpu time   35.3149: real time   35.3893
       DOS:  cpu time    0.0022: real time    0.0060
    --------------------------------------------
      LOOP:  cpu time   35.3171: real time   35.3953

 eigenvalue-minimisations  : 46080
 total energy-change (2. order) :-0.1082903E+03  (-0.1081931E+03)
 number of electron      39.0000000 magnetization       7.0000000
 augmentation part       39.0000000 magnetization       7.0000000

 Free energy of the ion-electron system (eV)
  ---------------------------------------------------
  alpha Z        PSCENC =        32.81390211
  Ewald energy   TEWEN  =     11524.67585812
  -Hartree energ DENC   =    -13385.01819231
  -exchange      EXHF   =         0.00000000
  -V(xc)+E(xc)   XCENC  =        30.69888652
  PAW double counting   =      1711.68586003    -1704.53122651
  entropy T*S    EENTRO =        -0.00239851
  eigenvalues    EBANDS =      -279.67628932
  atomic energy  EATOM  =      2034.40150045
  Solvation  Ediel_sol  =         0.00000000
  ---------------------------------------------------
  free energy    TOTEN  =       -34.95209942 eV

  energy without entropy =      -34.94970090  energy(sigma->0) =      -34.95090016


--------------------------------------------------------------------------------------------------------




--------------------------------------- Iteration      1(   3)  ---------------------------------------


     EDDAV:  cpu time   16.0905: real time   16.1268
       DOS:  cpu time    0.0024: real time    0.0024
    --------------------------------------------
      LOOP:  cpu time   16.0929: real time   16.1292

 eigenvalue-minimisations  : 30720
 total energy-change (2. order) :-0.6875040E+00  (-0.6872530E+00)
 number of electron      39.0000000 magnetization       7.0000000
 augmentation part       39.0000000 magnetization       7.0000000

 Free energy of the ion-electron system (eV)
  ---------------------------------------------------
  alpha Z        PSCENC =        32.81390211
  Ewald energy   TEWEN  =     11524.67585812
  -Hartree energ DENC   =    -13385.01819231
  -exchange      EXHF   =         0.00000000
  -V(xc)+E(xc)   XCENC  =        30.69888652
  PAW double counting   =      1711.68586003    -1704.53122651
  entropy T*S    EENTRO =        -0.00234312
  eigenvalues    EBANDS =      -280.36384873
  atomic energy  EATOM  =      2034.40150045
  Solvation  Ediel_sol  =         0.00000000
  ---------------------------------------------------
  free energy    TOTEN  =       -35.63960343 eV

  energy without entropy =      -35.63726031  energy(sigma->0) =      -35.63843187


--------------------------------------------------------------------------------------------------------




--------------------------------------- Iteration      1(   4)  ---------------------------------------


     EDDAV:  cpu time   69.8184: real time   69.9661
       DOS:  cpu time    0.0025: real time    0.0025
    --------------------------------------------
      LOOP:  cpu time   69.8209: real time   69.9686

 eigenvalue-minimisations  : 61440
 total energy-change (2. order) :-0.2882824E-02  (-0.2882822E-02)
 number of electron      39.0000000 magnetization       7.0000000
 augmentation part       39.0000000 magnetization       7.0000000

 Free energy of the ion-electron system (eV)
  ---------------------------------------------------
  alpha Z        PSCENC =        32.81390211
  Ewald energy   TEWEN  =     11524.67585812
  -Hartree energ DENC   =    -13385.01819231
  -exchange      EXHF   =         0.00000000
  -V(xc)+E(xc)   XCENC  =        30.69888652
  PAW double counting   =      1711.68586003    -1704.53122651
  entropy T*S    EENTRO =        -0.00234271
  eigenvalues    EBANDS =      -280.36673196
  atomic energy  EATOM  =      2034.40150045
  Solvation  Ediel_sol  =         0.00000000
  ---------------------------------------------------
  free energy    TOTEN  =       -35.64248625 eV

  energy without entropy =      -35.64014354  energy(sigma->0) =      -35.64131490


--------------------------------------------------------------------------------------------------------




--------------------------------------- Iteration      1(   5)  ---------------------------------------


     EDDAV:  cpu time   16.0099: real time   16.0434
       DOS:  cpu time    0.0021: real time    0.0021
    CHARGE:  cpu time    0.1497: real time    0.1502
    MIXING:  cpu time    0.0009: real time    0.0011
    --------------------------------------------
      LOOP:  cpu time   16.1627: real time   16.1967

 eigenvalue-minimisations  : 30720
 total energy-change (2. order) :-0.8240931E-07  (-0.8243023E-07)
 number of electron      38.9999958 magnetization       6.5658096
 augmentation part       -0.1025599 magnetization       5.8357960

 Broyden mixing:
  rms(total) = 0.21952E+01    rms(broyden)= 0.21951E+01
  rms(prec ) = 0.22287E+01
  weight for this iteration     100.00

 Free energy of the ion-electron system (eV)
  ---------------------------------------------------
  alpha Z        PSCENC =        32.81390211
  Ewald energy   TEWEN  =     11524.67585812
  -Hartree energ DENC   =    -13385.01819231
  -exchange      EXHF   =         0.00000000
  -V(xc)+E(xc)   XCENC  =        30.69888652
  PAW double counting   =      1711.68586003    -1704.53122651
  entropy T*S    EENTRO =        -0.00234271
  eigenvalues    EBANDS =      -280.36673204
  atomic energy  EATOM  =      2034.40150045
  Solvation  Ediel_sol  =         0.00000000
  ---------------------------------------------------
  free energy    TOTEN  =       -35.64248634 eV

  energy without entropy =      -35.64014363  energy(sigma->0) =      -35.64131498


--------------------------------------------------------------------------------------------------------




--------------------------------------- Iteration      1(   6)  ---------------------------------------


    POTLOK:  cpu time    0.0179: real time    0.0180
    SETDIJ:  cpu time    0.0054: real time    0.0054
     EDDAV:  cpu time   49.9118: real time   50.0174
       DOS:  cpu time    0.0030: real time    0.0030
    CHARGE:  cpu time    0.1507: real time    0.1509
    MIXING:  cpu time    0.0011: real time    0.0012
    --------------------------------------------
      LOOP:  cpu time   50.0900: real time   50.1960

 eigenvalue-minimisations  : 52608
 total energy-change (2. order) :-0.1649857E+01  (-0.1565554E+02)
 number of electron      38.9999948 magnetization       6.4278752
 augmentation part        2.9608748 magnetization       5.2186651

 Broyden mixing:
  rms(total) = 0.28361E+01    rms(broyden)= 0.28361E+01
  rms(prec ) = 0.29446E+01
  weight for this iteration     100.00

 eigenvalues of (default mixing * dielectric matrix)
  average eigenvalue GAMMA=   0.3937
  0.3937

 Free energy of the ion-electron system (eV)
  ---------------------------------------------------
  alpha Z        PSCENC =        32.81390211
  Ewald energy   TEWEN  =     11524.67585812
  -Hartree energ DENC   =    -13352.86384837
  -exchange      EXHF   =         0.00000000
  -V(xc)+E(xc)   XCENC  =        33.13143207
  PAW double counting   =      2350.88149904    -2335.03783995
  entropy T*S    EENTRO =        -0.00175840
  eigenvalues    EBANDS =      -325.29308816
  atomic energy  EATOM  =      2034.40150045
  Solvation  Ediel_sol  =         0.00000000
  ---------------------------------------------------
  free energy    TOTEN  =       -37.29234308 eV

  energy without entropy =      -37.29058468  energy(sigma->0) =      -37.29146388


--------------------------------------------------------------------------------------------------------




--------------------------------------- Iteration      1(   7)  ---------------------------------------


    POTLOK:  cpu time    0.0179: real time    0.0179
    SETDIJ:  cpu time    0.0058: real time    0.0058
     EDDAV:  cpu time   50.7663: real time   50.8724
       DOS:  cpu time    0.0025: real time    0.0025
    CHARGE:  cpu time    0.1488: real time    0.1491
    MIXING:  cpu time    0.0009: real time    0.0009
    --------------------------------------------
      LOOP:  cpu time   50.9423: real time   51.0488

 eigenvalue-minimisations  : 53120
 total energy-change (2. order) : 0.7657134E+01  (-0.6312493E+01)
 number of electron      38.9999955 magnetization       5.8661989
 augmentation part        0.8219380 magnetization       5.2979101

 Broyden mixing:
  rms(total) = 0.95782E+00    rms(broyden)= 0.95779E+00
  rms(prec ) = 0.96269E+00
  weight for this iteration     100.00

 eigenvalues of (default mixing * dielectric matrix)
  average eigenvalue GAMMA=   0.7363
  1.1302  0.3423

 Free energy of the ion-electron system (eV)
  ---------------------------------------------------
  alpha Z        PSCENC =        32.81390211
  Ewald energy   TEWEN  =     11524.67585812
  -Hartree energ DENC   =    -13396.22644781
  -exchange      EXHF   =         0.00000000
  -V(xc)+E(xc)   XCENC  =        33.87006445
  PAW double counting   =      2592.65616753    -2585.44841616
  entropy T*S    EENTRO =        -0.00072837
  eigenvalues    EBANDS =      -266.37710980
  atomic energy  EATOM  =      2034.40150045
  Solvation  Ediel_sol  =         0.00000000
  ---------------------------------------------------
  free energy    TOTEN  =       -29.63520947 eV

  energy without entropy =      -29.63448110  energy(sigma->0) =      -29.63484528


--------------------------------------------------------------------------------------------------------




--------------------------------------- Iteration      1(   8)  ---------------------------------------


    POTLOK:  cpu time    0.0163: real time    0.0163
    SETDIJ:  cpu time    0.0052: real time    0.0052
     EDDAV:  cpu time   65.0228: real time   65.1593
       DOS:  cpu time    0.0025: real time    0.0025
    CHARGE:  cpu time    0.1575: real time    0.1579
    MIXING:  cpu time    0.0005: real time    0.0005
    --------------------------------------------
      LOOP:  cpu time   65.2048: real time   65.3417

 eigenvalue-minimisations  : 59648
 total energy-change (2. order) : 0.6564187E+00  (-0.1716277E+00)
 number of electron      38.9999956 magnetization       5.3667734
 augmentation part        0.6180169 magnetization       4.8809738

 Broyden mixing:
  rms(total) = 0.66766E+00    rms(broyden)= 0.66765E+00
  rms(prec ) = 0.67667E+00
  weight for this iteration     100.00

 eigenvalues of (default mixing * dielectric matrix)
  average eigenvalue GAMMA=   0.9469
  1.8796  0.3548  0.6062

 Free energy of the ion-electron system (eV)
  ---------------------------------------------------
  alpha Z        PSCENC =        32.81390211
  Ewald energy   TEWEN  =     11524.67585812
  -Hartree energ DENC   =    -13418.76200126
  -exchange      EXHF   =         0.00000000
  -V(xc)+E(xc)   XCENC  =        34.84358360
  PAW double counting   =      3311.04026425    -3305.14543087
  entropy T*S    EENTRO =        -0.00074586
  eigenvalues    EBANDS =      -242.84572129
  atomic energy  EATOM  =      2034.40150045
  Solvation  Ediel_sol  =         0.00000000
  ---------------------------------------------------
  free energy    TOTEN  =       -28.97879074 eV

  energy without entropy =      -28.97804488  energy(sigma->0) =      -28.97841781


--------------------------------------------------------------------------------------------------------




--------------------------------------- Iteration      1(   9)  ---------------------------------------


    POTLOK:  cpu time    0.0169: real time    0.0169
    SETDIJ:  cpu time    0.0058: real time    0.0058
     EDDAV:  cpu time   60.6388: real time   60.7660
       DOS:  cpu time    0.0025: real time    0.0025
    CHARGE:  cpu time    0.1513: real time    0.1516
    MIXING:  cpu time    0.0005: real time    0.0005
    --------------------------------------------
      LOOP:  cpu time   60.8158: real time   60.9433

 eigenvalue-minimisations  : 57472
 total energy-change (2. order) :-0.3017994E+00  (-0.4708311E-01)
 number of electron      38.9999955 magnetization       4.8792496
 augmentation part        0.7963216 magnetization       4.4059146

 Broyden mixing:
  rms(total) = 0.39681E+00    rms(broyden)= 0.39681E+00
  rms(prec ) = 0.39977E+00
  weight for this iteration     100.00

 eigenvalues of (default mixing * dielectric matrix)
  average eigenvalue GAMMA=   1.0674
  2.3574  0.3490  0.9106  0.6525

 Free energy of the ion-electron system (eV)
  ---------------------------------------------------
  alpha Z        PSCENC =        32.81390211
  Ewald energy   TEWEN  =     11524.67585812
  -Hartree energ DENC   =    -13425.93050798
  -exchange      EXHF   =         0.00000000
  -V(xc)+E(xc)   XCENC  =        34.68421205
  PAW double counting   =      3774.05645036    -3768.06516412
  entropy T*S    EENTRO =        -0.00057005
  eigenvalues    EBANDS =      -235.91627110
  atomic energy  EATOM  =      2034.40150045
  Solvation  Ediel_sol  =         0.00000000
  ---------------------------------------------------
  free energy    TOTEN  =       -29.28059015 eV

  energy without entropy =      -29.28002011  energy(sigma->0) =      -29.28030513


--------------------------------------------------------------------------------------------------------




--------------------------------------- Iteration      1(  10)  ---------------------------------------


    POTLOK:  cpu time    0.0170: real time    0.0171
    SETDIJ:  cpu time    0.0055: real time    0.0055
     EDDAV:  cpu time   41.3369: real time   41.4234
       DOS:  cpu time    0.0030: real time    0.0030
    CHARGE:  cpu time    0.1494: real time    0.1497
    MIXING:  cpu time    0.0007: real time    0.0007
    --------------------------------------------
      LOOP:  cpu time   41.5126: real time   41.5994

 eigenvalue-minimisations  : 47744
 total energy-change (2. order) :-0.9325374E+00  (-0.4430103E-01)
 number of electron      38.9999954 magnetization       4.2361145
 augmentation part        0.9354999 magnetization       3.7755439

 Broyden mixing:
  rms(total) = 0.31408E+00    rms(broyden)= 0.31408E+00
  rms(prec ) = 0.31423E+00
  weight for this iteration     100.00

 eigenvalues of (default mixing * dielectric matrix)
  average eigenvalue GAMMA=   1.1250
  2.3544  1.5955  0.3496  0.6628  0.6628

 Free energy of the ion-electron system (eV)
  ---------------------------------------------------
  alpha Z        PSCENC =        32.81390211
  Ewald energy   TEWEN  =     11524.67585812
  -Hartree energ DENC   =    -13427.02834320
  -exchange      EXHF   =         0.00000000
  -V(xc)+E(xc)   XCENC  =        34.24559478
  PAW double counting   =      3943.79099716    -3937.45418625
  entropy T*S    EENTRO =        -0.00039134
  eigenvalues    EBANDS =      -235.65805941
  atomic energy  EATOM  =      2034.40150045
  Solvation  Ediel_sol  =         0.00000000
  ---------------------------------------------------
  free energy    TOTEN  =       -30.21312757 eV

  energy without entropy =      -30.21273623  energy(sigma->0) =      -30.21293190


--------------------------------------------------------------------------------------------------------




--------------------------------------- Iteration      1(  11)  ---------------------------------------


    POTLOK:  cpu time    0.0219: real time    0.0219
    SETDIJ:  cpu time    0.0059: real time    0.0059
     EDDAV:  cpu time   47.6940: real time   47.7942
       DOS:  cpu time    0.0023: real time    0.0023
    CHARGE:  cpu time    0.1490: real time    0.1493
    MIXING:  cpu time    0.0007: real time    0.0007
    --------------------------------------------
      LOOP:  cpu time   47.8739: real time   47.9743

 eigenvalue-minimisations  : 50560
 total energy-change (2. order) :-0.1384891E+01  (-0.8192641E-01)
 number of electron      38.9999954 magnetization       3.2097459
 augmentation part        0.9393158 magnetization       2.7975474

 Broyden mixing:
  rms(total) = 0.24883E+00    rms(broyden)= 0.24883E+00
  rms(prec ) = 0.24908E+00
  weight for this iteration     100.00

 eigenvalues of (default mixing * dielectric matrix)
  average eigenvalue GAMMA=   1.2991
  2.5482  2.5482  0.3495  0.8655  0.8655  0.6179

 Free energy of the ion-electron system (eV)
  ---------------------------------------------------
  alpha Z        PSCENC =        32.81390211
  Ewald energy   TEWEN  =     11524.67585812
  -Hartree energ DENC   =    -13427.79347340
  -exchange      EXHF   =         0.00000000
  -V(xc)+E(xc)   XCENC  =        33.62996869
  PAW double counting   =      3914.49468612    -3907.95151666
  entropy T*S    EENTRO =        -0.00032342
  eigenvalues    EBANDS =      -235.86862088
  atomic energy  EATOM  =      2034.40150045
  Solvation  Ediel_sol  =         0.00000000
  ---------------------------------------------------
  free energy    TOTEN  =       -31.59801886 eV

  energy without entropy =      -31.59769544  energy(sigma->0) =      -31.59785715


--------------------------------------------------------------------------------------------------------




--------------------------------------- Iteration      1(  12)  ---------------------------------------


    POTLOK:  cpu time    0.0177: real time    0.0177
    SETDIJ:  cpu time    0.0059: real time    0.0059
     EDDAV:  cpu time   47.0318: real time   47.1305
       DOS:  cpu time    0.0023: real time    0.0024
    CHARGE:  cpu time    0.1485: real time    0.1488
    MIXING:  cpu time    0.0006: real time    0.0006
    --------------------------------------------
      LOOP:  cpu time   47.2067: real time   47.3058

 eigenvalue-minimisations  : 50688
 total energy-change (2. order) :-0.1247447E+01  (-0.7813315E-01)
 number of electron      38.9999954 magnetization       1.9991903
 augmentation part        0.9910976 magnetization       1.6326434

 Broyden mixing:
  rms(total) = 0.17857E+00    rms(broyden)= 0.17857E+00
  rms(prec ) = 0.17958E+00
  weight for this iteration     100.00

 eigenvalues of (default mixing * dielectric matrix)
  average eigenvalue GAMMA=   1.7495
  5.7109  2.5705  1.4133  0.3495  0.7932  0.7932  0.6162

 Free energy of the ion-electron system (eV)
  ---------------------------------------------------
  alpha Z        PSCENC =        32.81390211
  Ewald energy   TEWEN  =     11524.67585812
  -Hartree energ DENC   =    -13430.76639583
  -exchange      EXHF   =         0.00000000
  -V(xc)+E(xc)   XCENC  =        32.96725452
  PAW double counting   =      3882.55842609    -3875.73022451
  entropy T*S    EENTRO =        -0.00026543
  eigenvalues    EBANDS =      -233.76552154
  atomic energy  EATOM  =      2034.40150045
  Solvation  Ediel_sol  =         0.00000000
  ---------------------------------------------------
  free energy    TOTEN  =       -32.84546602 eV

  energy without entropy =      -32.84520059  energy(sigma->0) =      -32.84533330


--------------------------------------------------------------------------------------------------------




--------------------------------------- Iteration      1(  13)  ---------------------------------------


    POTLOK:  cpu time    0.0170: real time    0.0171
    SETDIJ:  cpu time    0.0060: real time    0.0060
     EDDAV:  cpu time   51.8539: real time   51.9635
       DOS:  cpu time    0.0027: real time    0.0027
    CHARGE:  cpu time    0.1463: real time    0.1467
    MIXING:  cpu time    0.0006: real time    0.0006
    --------------------------------------------
      LOOP:  cpu time   52.0265: real time   52.1364

 eigenvalue-minimisations  : 53632
 total energy-change (2. order) :-0.1043653E+01  (-0.9568519E-01)
 number of electron      38.9999954 magnetization       1.7760245
 augmentation part        0.9132436 magnetization       1.4480746

 Broyden mixing:
  rms(total) = 0.12361E+00    rms(broyden)= 0.12361E+00
  rms(prec ) = 0.12510E+00
  weight for this iteration     100.00

 eigenvalues of (default mixing * dielectric matrix)
  average eigenvalue GAMMA=   1.7996
  7.0788  2.3475  1.7377  0.3495  0.8540  0.8540  0.5876  0.5876

 Free energy of the ion-electron system (eV)
  ---------------------------------------------------
  alpha Z        PSCENC =        32.81390211
  Ewald energy   TEWEN  =     11524.67585812
  -Hartree energ DENC   =    -13432.88108351
  -exchange      EXHF   =         0.00000000
  -V(xc)+E(xc)   XCENC  =        32.36451587
  PAW double counting   =      3796.13516905    -3789.52582679
  entropy T*S    EENTRO =        -0.00024463
  eigenvalues    EBANDS =      -231.87291001
  atomic energy  EATOM  =      2034.40150045
  Solvation  Ediel_sol  =         0.00000000
  ---------------------------------------------------
  free energy    TOTEN  =       -33.88911933 eV

  energy without entropy =      -33.88887470  energy(sigma->0) =      -33.88899702


--------------------------------------------------------------------------------------------------------




--------------------------------------- Iteration      1(  14)  ---------------------------------------


    POTLOK:  cpu time    0.0172: real time    0.0173
    SETDIJ:  cpu time    0.0055: real time    0.0055
     EDDAV:  cpu time   44.9309: real time   45.0254
       DOS:  cpu time    0.0029: real time    0.0029
    CHARGE:  cpu time    0.1479: real time    0.1482
    MIXING:  cpu time    0.0006: real time    0.0006
    --------------------------------------------
      LOOP:  cpu time   45.1050: real time   45.1999

 eigenvalue-minimisations  : 49280
 total energy-change (2. order) :-0.3130436E+00  (-0.1411075E-01)
 number of electron      38.9999954 magnetization       1.5834848
 augmentation part        0.9472225 magnetization       1.2433861

 Broyden mixing:
  rms(total) = 0.80738E-01    rms(broyden)= 0.80738E-01
  rms(prec ) = 0.82133E-01
  weight for this iteration     100.00

 eigenvalues of (default mixing * dielectric matrix)
  average eigenvalue GAMMA=   2.0032
  9.5398  2.1594  2.1594  0.3495  0.9554  0.9554  0.6137  0.6481  0.6481

 Free energy of the ion-electron system (eV)
  ---------------------------------------------------
  alpha Z        PSCENC =        32.81390211
  Ewald energy   TEWEN  =     11524.67585812
  -Hartree energ DENC   =    -13431.43838751
  -exchange      EXHF   =         0.00000000
  -V(xc)+E(xc)   XCENC  =        32.15182455
  PAW double counting   =      3825.84162589    -3819.22882128
  entropy T*S    EENTRO =        -0.00024903
  eigenvalues    EBANDS =      -233.41941627
  atomic energy  EATOM  =      2034.40150045
  Solvation  Ediel_sol  =         0.00000000
  ---------------------------------------------------
  free energy    TOTEN  =       -34.20216296 eV

  energy without entropy =      -34.20191393  energy(sigma->0) =      -34.20203845


--------------------------------------------------------------------------------------------------------




--------------------------------------- Iteration      1(  15)  ---------------------------------------


    POTLOK:  cpu time    0.0178: real time    0.0178
    SETDIJ:  cpu time    0.0055: real time    0.0055
     EDDAV:  cpu time   54.3667: real time   54.4815
       DOS:  cpu time    0.0021: real time    0.0021
    CHARGE:  cpu time    0.1499: real time    0.1502
    MIXING:  cpu time    0.0009: real time    0.0009
    --------------------------------------------
      LOOP:  cpu time   54.5428: real time   54.6580

 eigenvalue-minimisations  : 54528
 total energy-change (2. order) :-0.2443345E+00  (-0.1054049E-01)
 number of electron      38.9999954 magnetization       1.3933770
 augmentation part        0.9428670 magnetization       1.0497415

 Broyden mixing:
  rms(total) = 0.54018E-01    rms(broyden)= 0.54018E-01
  rms(prec ) = 0.55529E-01
  weight for this iteration     100.00

 eigenvalues of (default mixing * dielectric matrix)
  average eigenvalue GAMMA=   2.1471
 10.6346  2.6465  2.6465  0.3495  1.2397  1.1279  0.9178  0.6901  0.6431  0.5759

 Free energy of the ion-electron system (eV)
  ---------------------------------------------------
  alpha Z        PSCENC =        32.81390211
  Ewald energy   TEWEN  =     11524.67585812
  -Hartree energ DENC   =    -13428.54310150
  -exchange      EXHF   =         0.00000000
  -V(xc)+E(xc)   XCENC  =        31.94697832
  PAW double counting   =      3832.51650077    -3825.96694780
  entropy T*S    EENTRO =        -0.00024754
  eigenvalues    EBANDS =      -236.29094040
  atomic energy  EATOM  =      2034.40150045
  Solvation  Ediel_sol  =         0.00000000
  ---------------------------------------------------
  free energy    TOTEN  =       -34.44649747 eV

  energy without entropy =      -34.44624993  energy(sigma->0) =      -34.44637370


--------------------------------------------------------------------------------------------------------




--------------------------------------- Iteration      1(  16)  ---------------------------------------


    POTLOK:  cpu time    0.0177: real time    0.0178
    SETDIJ:  cpu time    0.0057: real time    0.0057
     EDDAV:  cpu time   53.6375: real time   53.7503
       DOS:  cpu time    0.0022: real time    0.0022
    CHARGE:  cpu time    0.1513: real time    0.1516
    MIXING:  cpu time    0.0012: real time    0.0012
    --------------------------------------------
      LOOP:  cpu time   53.8156: real time   53.9288

 eigenvalue-minimisations  : 54144
 total energy-change (2. order) :-0.2059366E+00  (-0.1250465E-01)
 number of electron      38.9999954 magnetization       1.3240046
 augmentation part        0.9485231 magnetization       0.9732577

 Broyden mixing:
  rms(total) = 0.32146E-01    rms(broyden)= 0.32146E-01
  rms(prec ) = 0.32732E-01
  weight for this iteration     100.00

 eigenvalues of (default mixing * dielectric matrix)
  average eigenvalue GAMMA=   2.0933
 10.9766  2.7049  2.7049  1.3340  1.3340  0.3495  0.9137  0.7991  0.7020  0.6313
  0.5758

 Free energy of the ion-electron system (eV)
  ---------------------------------------------------
  alpha Z        PSCENC =        32.81390211
  Ewald energy   TEWEN  =     11524.67585812
  -Hartree energ DENC   =    -13421.59815393
  -exchange      EXHF   =         0.00000000
  -V(xc)+E(xc)   XCENC  =        31.70018018
  PAW double counting   =      3828.11370941    -3821.60260460
  entropy T*S    EENTRO =        -0.00024786
  eigenvalues    EBANDS =      -243.15657796
  atomic energy  EATOM  =      2034.40150045
  Solvation  Ediel_sol  =         0.00000000
  ---------------------------------------------------
  free energy    TOTEN  =       -34.65243409 eV

  energy without entropy =      -34.65218622  energy(sigma->0) =      -34.65231016


--------------------------------------------------------------------------------------------------------




--------------------------------------- Iteration      1(  17)  ---------------------------------------


    POTLOK:  cpu time    0.0182: real time    0.0182
    SETDIJ:  cpu time    0.0058: real time    0.0058
     EDDAV:  cpu time   42.8940: real time   42.9841
       DOS:  cpu time    0.0030: real time    0.0030
    CHARGE:  cpu time    0.1477: real time    0.1480
    MIXING:  cpu time    0.0008: real time    0.0008
    --------------------------------------------
      LOOP:  cpu time   43.0695: real time   43.1599

 eigenvalue-minimisations  : 48640
 total energy-change (2. order) :-0.3098354E-01  (-0.7522431E-03)
 number of electron      38.9999954 magnetization       1.2134302
 augmentation part        0.9446835 magnetization       0.8634149

 Broyden mixing:
  rms(total) = 0.26663E-01    rms(broyden)= 0.26663E-01
  rms(prec ) = 0.27081E-01
  weight for this iteration     100.00

 eigenvalues of (default mixing * dielectric matrix)
  average eigenvalue GAMMA=   2.1075
 11.1650  3.6014  2.3680  1.8617  1.2261  1.2261  0.3495  0.8317  0.7736  0.6761
  0.6339  0.5768

 Free energy of the ion-electron system (eV)
  ---------------------------------------------------
  alpha Z        PSCENC =        32.81390211
  Ewald energy   TEWEN  =     11524.67585812
  -Hartree energ DENC   =    -13419.67233824
  -exchange      EXHF   =         0.00000000
  -V(xc)+E(xc)   XCENC  =        31.65763669
  PAW double counting   =      3821.31217547    -3814.80432877
  entropy T*S    EENTRO =        -0.00024885
  eigenvalues    EBANDS =      -245.06757462
  atomic energy  EATOM  =      2034.40150045
  Solvation  Ediel_sol  =         0.00000000
  ---------------------------------------------------
  free energy    TOTEN  =       -34.68341762 eV

  energy without entropy =      -34.68316878  energy(sigma->0) =      -34.68329320


--------------------------------------------------------------------------------------------------------




--------------------------------------- Iteration      1(  18)  ---------------------------------------


    POTLOK:  cpu time    0.0171: real time    0.0172
    SETDIJ:  cpu time    0.0056: real time    0.0056
     EDDAV:  cpu time   46.3999: real time   46.4987
       DOS:  cpu time    0.0028: real time    0.0028
    CHARGE:  cpu time    0.1507: real time    0.1510
    MIXING:  cpu time    0.0010: real time    0.0010
    --------------------------------------------
      LOOP:  cpu time   46.5772: real time   46.6763

 eigenvalue-minimisations  : 50432
 total energy-change (2. order) :-0.3444810E-01  (-0.1067024E-02)
 number of electron      38.9999954 magnetization       1.1224073
 augmentation part        0.9451063 magnetization       0.7728345

 Broyden mixing:
  rms(total) = 0.19473E-01    rms(broyden)= 0.19473E-01
  rms(prec ) = 0.19678E-01
  weight for this iteration     100.00

 eigenvalues of (default mixing * dielectric matrix)
  average eigenvalue GAMMA=   2.2230
 11.5725  5.0404  2.4465  2.4465  1.3424  1.3424  0.3495  0.9078  0.9078  0.6802
  0.6802  0.5661  0.6173

 Free energy of the ion-electron system (eV)
  ---------------------------------------------------
  alpha Z        PSCENC =        32.81390211
  Ewald energy   TEWEN  =     11524.67585812
  -Hartree energ DENC   =    -13416.25223498
  -exchange      EXHF   =         0.00000000
  -V(xc)+E(xc)   XCENC  =        31.59893468
  PAW double counting   =      3818.41058141    -3811.89313086
  entropy T*S    EENTRO =        -0.00024897
  eigenvalues    EBANDS =      -248.47302768
  atomic energy  EATOM  =      2034.40150045
  Solvation  Ediel_sol  =         0.00000000
  ---------------------------------------------------
  free energy    TOTEN  =       -34.71786572 eV

  energy without entropy =      -34.71761674  energy(sigma->0) =      -34.71774123


--------------------------------------------------------------------------------------------------------




--------------------------------------- Iteration      1(  19)  ---------------------------------------


    POTLOK:  cpu time    0.0180: real time    0.0180
    SETDIJ:  cpu time    0.0057: real time    0.0057
     EDDAV:  cpu time   44.5940: real time   44.6879
       DOS:  cpu time    0.0025: real time    0.0053
    CHARGE:  cpu time    0.1527: real time    0.1530
    MIXING:  cpu time    0.0010: real time    0.0010
    --------------------------------------------
      LOOP:  cpu time   44.7739: real time   44.8709

 eigenvalue-minimisations  : 48768
 total energy-change (2. order) :-0.2188979E-01  (-0.4906140E-03)
 number of electron      38.9999954 magnetization       1.0701845
 augmentation part        0.9479781 magnetization       0.7202213

 Broyden mixing:
  rms(total) = 0.12621E-01    rms(broyden)= 0.12621E-01
  rms(prec ) = 0.12937E-01
  weight for this iteration     100.00

 eigenvalues of (default mixing * dielectric matrix)
  average eigenvalue GAMMA=   2.2449
 11.7819  5.8221  2.7785  2.6360  1.3791  1.3791  1.0807  0.3495  0.8342  0.8342
  0.5752  0.6896  0.6739  0.6148

 Free energy of the ion-electron system (eV)
  ---------------------------------------------------
  alpha Z        PSCENC =        32.81390211
  Ewald energy   TEWEN  =     11524.67585812
  -Hartree energ DENC   =    -13413.98981013
  -exchange      EXHF   =         0.00000000
  -V(xc)+E(xc)   XCENC  =        31.56770034
  PAW double counting   =      3816.88690733    -3810.35290319
  entropy T*S    EENTRO =        -0.00024933
  eigenvalues    EBANDS =      -250.74266122
  atomic energy  EATOM  =      2034.40150045
  Solvation  Ediel_sol  =         0.00000000
  ---------------------------------------------------
  free energy    TOTEN  =       -34.73975551 eV

  energy without entropy =      -34.73950618  energy(sigma->0) =      -34.73963084


--------------------------------------------------------------------------------------------------------




--------------------------------------- Iteration      1(  20)  ---------------------------------------


    POTLOK:  cpu time    0.0168: real time    0.0168
    SETDIJ:  cpu time    0.0056: real time    0.0056
     EDDAV:  cpu time   41.7225: real time   41.8099
       DOS:  cpu time    0.0022: real time    0.0022
    CHARGE:  cpu time    0.1489: real time    0.1491
    MIXING:  cpu time    0.0008: real time    0.0008
    --------------------------------------------
      LOOP:  cpu time   41.8968: real time   41.9845

 eigenvalue-minimisations  : 47104
 total energy-change (2. order) :-0.1042324E-01  (-0.1501336E-03)
 number of electron      38.9999954 magnetization       1.0207932
 augmentation part        0.9409247 magnetization       0.6728049

 Broyden mixing:
  rms(total) = 0.87019E-02    rms(broyden)= 0.87018E-02
  rms(prec ) = 0.89148E-02
  weight for this iteration     100.00

 eigenvalues of (default mixing * dielectric matrix)
  average eigenvalue GAMMA=   2.3953
 12.3071  7.6829  3.1685  2.4161  2.1228  1.3864  1.3864  0.3495  0.9260  0.9260
  0.7179  0.7179  0.5823  0.6199  0.6199

 Free energy of the ion-electron system (eV)
  ---------------------------------------------------
  alpha Z        PSCENC =        32.81390211
  Ewald energy   TEWEN  =     11524.67585812
  -Hartree energ DENC   =    -13413.45450410
  -exchange      EXHF   =         0.00000000
  -V(xc)+E(xc)   XCENC  =        31.56450966
  PAW double counting   =      3817.08006585    -3810.55726745
  entropy T*S    EENTRO =        -0.00024917
  eigenvalues    EBANDS =      -251.27399424
  atomic energy  EATOM  =      2034.40150045
  Solvation  Ediel_sol  =         0.00000000
  ---------------------------------------------------
  free energy    TOTEN  =       -34.75017875 eV

  energy without entropy =      -34.74992958  energy(sigma->0) =      -34.75005416


--------------------------------------------------------------------------------------------------------




--------------------------------------- Iteration      1(  21)  ---------------------------------------


    POTLOK:  cpu time    0.0172: real time    0.0173
    SETDIJ:  cpu time    0.0055: real time    0.0056
     EDDAV:  cpu time   42.0249: real time   42.1133
       DOS:  cpu time    0.0024: real time    0.0024
    CHARGE:  cpu time    0.1512: real time    0.1515
    MIXING:  cpu time    0.0010: real time    0.0010
    --------------------------------------------
      LOOP:  cpu time   42.2023: real time   42.2910

 eigenvalue-minimisations  : 47360
 total energy-change (2. order) :-0.2575627E-01  (-0.8723324E-04)
 number of electron      38.9999954 magnetization       1.0072245
 augmentation part        0.9439668 magnetization       0.6586964

 Broyden mixing:
  rms(total) = 0.33072E-02    rms(broyden)= 0.33072E-02
  rms(prec ) = 0.35968E-02
  weight for this iteration     100.00

 eigenvalues of (default mixing * dielectric matrix)
  average eigenvalue GAMMA=   2.4877
 13.0051  9.1035  3.4439  2.5096  2.5096  1.3859  1.3859  0.3495  1.0645  0.8870
  0.8870  0.7229  0.7229  0.5814  0.6225  0.6225

 Free energy of the ion-electron system (eV)
  ---------------------------------------------------
  alpha Z        PSCENC =        32.81390211
  Ewald energy   TEWEN  =     11524.67585812
  -Hartree energ DENC   =    -13412.71156002
  -exchange      EXHF   =         0.00000000
  -V(xc)+E(xc)   XCENC  =        31.53834115
  PAW double counting   =      3820.42353494    -3813.89539764
  entropy T*S    EENTRO =        -0.00024922
  eigenvalues    EBANDS =      -252.02186491
  atomic energy  EATOM  =      2034.40150045
  Solvation  Ediel_sol  =         0.00000000
  ---------------------------------------------------
  free energy    TOTEN  =       -34.77593501 eV

  energy without entropy =      -34.77568579  energy(sigma->0) =      -34.77581040


--------------------------------------------------------------------------------------------------------




--------------------------------------- Iteration      1(  22)  ---------------------------------------


    POTLOK:  cpu time    0.0172: real time    0.0173
    SETDIJ:  cpu time    0.0057: real time    0.0057
     EDDAV:  cpu time   41.0862: real time   41.1727
       DOS:  cpu time    0.0026: real time    0.0026
    CHARGE:  cpu time    0.1491: real time    0.1494
    MIXING:  cpu time    0.0010: real time    0.0010
    --------------------------------------------
      LOOP:  cpu time   41.2619: real time   41.3487

 eigenvalue-minimisations  : 47360
 total energy-change (2. order) :-0.2044085E-01  (-0.1027860E-04)
 number of electron      38.9999954 magnetization       1.0030393
 augmentation part        0.9443517 magnetization       0.6544056

 Broyden mixing:
  rms(total) = 0.17645E-02    rms(broyden)= 0.17645E-02
  rms(prec ) = 0.20171E-02
  weight for this iteration     100.00

 eigenvalues of (default mixing * dielectric matrix)
  average eigenvalue GAMMA=   2.5033
 13.5540  9.6603  3.5456  2.9188  2.4488  1.4588  1.4588  1.2994  0.3495  0.9329
  0.9329  0.7312  0.7312  0.7115  0.5841  0.6090  0.6295

 Free energy of the ion-electron system (eV)
[...]
     72      15.8142      0.00000
     73      15.8178      0.00000
     74      15.9663      0.00000
     75      16.1141      0.00000
     76      16.1715      0.00000
     77      16.3794      0.00000
     78      16.4790      0.00000
     79      16.5292      0.00000
     80      16.9057      0.00000
     81      17.0655      0.00000
     82      17.5115      0.00000
     83      17.6912      0.00000
     84      17.9112      0.00000
     85      18.2692      0.00000
     86      18.5318      0.00000
     87      19.0489      0.00000
     88      19.0909      0.00000
     89      19.1387      0.00000
     90      19.3950      0.00000
     91      19.4936      0.00000
     92      19.5118      0.00000
     93      19.9702      0.00000
     94      20.0907      0.00000
     95      20.2636      0.00000
     96      20.5342      0.00000
     97      20.8551      0.00000
     98      21.5018      0.00000
     99      21.5443      0.00000
    100      21.6807      0.00000
    101      21.8477      0.00000
    102      21.9384      0.00000
    103      22.0112      0.00000
    104      22.0688      0.00000
    105      22.5747      0.00000
    106      22.7103      0.00000
    107      22.8563      0.00000
    108      23.2962      0.00000
    109      23.4258      0.00000
    110      23.5192      0.00000
    111      23.7363      0.00000
    112      23.7615      0.00000
    113      24.0695      0.00000
    114      24.3256      0.00000
    115      24.5511      0.00000
    116      24.8478      0.00000
    117      24.9431      0.00000
    118      24.9923      0.00000
    119      25.5471      0.00000
    120      25.6329      0.00000
    121      25.6893      0.00000
    122      25.9122      0.00000
    123      26.3727      0.00000
    124      26.6352      0.00000
    125      26.8109      0.00000
    126      27.0114      0.00000
    127      27.3104      0.00000
    128      27.3418      0.00000

 k-point    60 :       0.5000    0.0000    0.0000
  band No.  band energies     occupation 
      1     -14.3843      1.00000
      2     -14.2183      1.00000
      3     -14.0683      1.00000
      4     -13.8072      1.00000
      5      -8.8549      1.00000
      6      -8.7486      1.00000
      7      -7.4400      1.00000
      8      -6.3166      1.00000
      9      -5.1721      1.00000
     10      -4.7842      1.00000
     11      -4.5427      1.00000
     12      -4.4639      1.00000
     13      -4.3267      1.00000
     14      -3.9573      1.00000
     15      -3.8718      1.00000
     16      -3.3322      1.00000
     17      -1.7460      1.00000
     18      -1.3847      1.00000
     19      -1.3738      1.00000
     20       0.0777      0.00000
     21       0.6477      0.00000
     22       0.8987      0.00000
     23       1.1207      0.00000
     24       1.2220      0.00000
     25       2.2316      0.00000
     26       3.4904      0.00000
     27       4.6155      0.00000
     28       4.7254      0.00000
     29       4.9906      0.00000
     30       5.4261      0.00000
     31       5.8540      0.00000
     32       6.5340      0.00000
     33       6.7836      0.00000
     34       7.1997      0.00000
     35       7.3585      0.00000
     36       8.0110      0.00000
     37       8.0526      0.00000
     38       8.2278      0.00000
     39       8.4639      0.00000
     40       9.0214      0.00000
     41       9.0532      0.00000
     42       9.0812      0.00000
     43       9.3546      0.00000
     44       9.6598      0.00000
     45      10.1918      0.00000
     46      10.3599      0.00000
     47      10.4974      0.00000
     48      11.0559      0.00000
     49      11.1320      0.00000
     50      11.6049      0.00000
     51      11.7444      0.00000
     52      11.9115      0.00000
     53      11.9529      0.00000
     54      12.2894      0.00000
     55      12.3944      0.00000
     56      12.6283      0.00000
     57      12.6659      0.00000
     58      12.8938      0.00000
     59      13.2089      0.00000
     60      13.2544      0.00000
     61      13.4153      0.00000
     62      13.7400      0.00000
     63      14.0752      0.00000
     64      14.1311      0.00000
     65      14.2845      0.00000
     66      14.8122      0.00000
     67      15.1865      0.00000
     68      15.2685      0.00000
     69      15.2781      0.00000
     70      15.6516      0.00000
     71      15.6759      0.00000
     72      15.7907      0.00000
     73      15.8131      0.00000
     74      15.8539      0.00000
     75      15.9752      0.00000
     76      16.0880      0.00000
     77      16.3787      0.00000
     78      16.4207      0.00000
     79      16.4229      0.00000
     80      16.8876      0.00000
     81      17.0150      0.00000
     82      17.4958      0.00000
     83      17.6805      0.00000
     84      17.8940      0.00000
     85      18.2804      0.00000
     86      18.5182      0.00000
     87      19.0754      0.00000
     88      19.0884      0.00000
     89      19.1849      0.00000
     90      19.4185      0.00000
     91      19.4329      0.00000
     92      19.4547      0.00000
     93      19.8602      0.00000
     94      20.1378      0.00000
     95      20.2253      0.00000
     96      20.6348      0.00000
     97      20.9499      0.00000
     98      21.6850      0.00000
     99      21.7007      0.00000
    100      21.7148      0.00000
    101      21.7884      0.00000
    102      22.0311      0.00000
    103      22.0410      0.00000
    104      22.3008      0.00000
    105      22.6976      0.00000
    106      22.7187      0.00000
    107      22.9050      0.00000
    108      23.2370      0.00000
    109      23.3599      0.00000
    110      23.5299      0.00000
    111      23.6207      0.00000
    112      23.7154      0.00000
    113      24.1191      0.00000
    114      24.3741      0.00000
    115      24.4049      0.00000
    116      24.5740      0.00000
    117      24.8629      0.00000
    118      25.0071      0.00000
    119      25.4090      0.00000
    120      25.6224      0.00000
    121      25.8865      0.00000
    122      25.9066      0.00000
    123      26.1085      0.00000
    124      26.7983      0.00000
    125      26.9021      0.00000
    126      27.0029      0.00000
    127      27.3833      0.00000
    128      27.3881      0.00000


--------------------------------------------------------------------------------------------------------


 soft charge-density along one line, spin component           1
         0         1         2         3         4         5         6         7         8         9
 total charge-density along one line
 
 soft charge-density along one line, spin component           2
         0         1         2         3         4         5         6         7         8         9
 total charge-density along one line
 
 pseudopotential strength for first ion, spin component:           1
  6.913   8.357   0.000   0.015  -0.000   0.000   0.029  -0.000
  8.357  10.100   0.000   0.019  -0.000   0.000   0.037  -0.000
  0.000   0.000   1.429   0.000   0.000   2.414   0.000   0.000
  0.015   0.019   0.000   1.431  -0.000   0.000   2.418  -0.000
 -0.000  -0.000   0.000  -0.000   1.429   0.000  -0.000   2.414
  0.000   0.000   2.414   0.000   0.000   4.101   0.000   0.000
  0.029   0.037   0.000   2.418  -0.000   0.000   4.108  -0.000
 -0.000  -0.000   0.000  -0.000   2.414   0.000  -0.000   4.101
  0.000   0.000  -0.000   0.000  -0.004  -0.000   0.000  -0.006
  0.000   0.000   0.009   0.000   0.000   0.016   0.000   0.000
  0.003   0.004  -0.000  -0.004   0.000  -0.000  -0.006   0.000
 -0.000  -0.000   0.000  -0.000   0.009   0.000  -0.000   0.016
 -0.000  -0.000  -0.004  -0.000  -0.000  -0.006  -0.000  -0.000
 pseudopotential strength for first ion, spin component:           2
  6.908   8.350   0.000   0.018  -0.000   0.000   0.033  -0.000
  8.350  10.091   0.000   0.022  -0.000   0.000   0.041  -0.000
  0.000   0.000   1.428   0.000   0.000   2.412   0.000   0.000
  0.018   0.022   0.000   1.430  -0.000   0.000   2.416  -0.000
 -0.000  -0.000   0.000  -0.000   1.428   0.000  -0.000   2.412
  0.000   0.000   2.412   0.000   0.000   4.097   0.000   0.000
  0.033   0.041   0.000   2.416  -0.000   0.000   4.104  -0.000
 -0.000  -0.000   0.000  -0.000   2.412   0.000  -0.000   4.097
  0.000   0.000  -0.000   0.000  -0.004  -0.000   0.000  -0.006
  0.000   0.000   0.010   0.000   0.000   0.017   0.000   0.000
  0.003   0.004  -0.000  -0.004   0.000  -0.000  -0.005   0.000
 -0.000  -0.000   0.000  -0.000   0.010   0.000  -0.000   0.017
 -0.000  -0.000  -0.004  -0.000  -0.000  -0.006  -0.000  -0.000
 total augmentation occupancy for first ion, spin component:           1
  5.842  -2.744  -0.000   0.201  -0.000  -0.000  -0.044   0.000   0.000   0.000   0.089  -0.000   0.000
 -2.744   1.516   0.000  -0.259   0.000   0.000   0.046  -0.000  -0.000   0.000  -0.039  -0.000  -0.000
  0.000   0.000   2.511   0.000  -0.000  -0.606   0.000   0.000  -0.000   0.239  -0.000  -0.000  -0.243
  0.201  -0.259   0.000   3.238   0.000   0.000  -0.814   0.000  -0.000   0.000  -0.340   0.000  -0.000
  0.000  -0.000  -0.000   0.000   2.511   0.000   0.000  -0.606  -0.243  -0.000  -0.000   0.239   0.000
 -0.000   0.000  -0.606   0.000   0.000   0.156   0.000  -0.000   0.000  -0.059   0.000   0.000   0.055
 -0.044   0.046  -0.000  -0.814   0.000   0.000   0.220   0.000   0.000   0.000   0.083   0.000   0.000
  0.000  -0.000   0.000   0.000  -0.606  -0.000   0.000   0.156   0.055   0.000   0.000  -0.059  -0.000
  0.000  -0.000  -0.000  -0.000  -0.243   0.000   0.000   0.055   0.058  -0.000   0.000  -0.034   0.000
 -0.000   0.000   0.239  -0.000  -0.000  -0.059   0.000   0.000  -0.000   0.064  -0.000  -0.000  -0.034
  0.089  -0.039  -0.000  -0.340  -0.000   0.000   0.083   0.000   0.000  -0.000   0.081  -0.000   0.000
 -0.000   0.000  -0.000   0.000   0.239   0.000   0.000  -0.059  -0.034  -0.000  -0.000   0.064   0.000
  0.000  -0.000  -0.243  -0.000   0.000   0.055   0.000  -0.000  -0.000  -0.034   0.000   0.000   0.058
 total augmentation occupancy for first ion, spin component:           2
  0.022  -0.029   0.000   0.010  -0.000   0.000   0.000   0.000   0.000   0.000   0.003   0.000   0.000
 -0.029   0.047   0.000  -0.024  -0.000   0.000   0.001  -0.000  -0.000  -0.000  -0.005  -0.000  -0.000
 -0.000   0.000   0.005   0.000  -0.000  -0.001   0.000   0.000   0.000  -0.003   0.000   0.000   0.000
  0.010  -0.024   0.000   0.018   0.000   0.000  -0.001  -0.000   0.000   0.000   0.003  -0.000   0.000
 -0.000   0.000  -0.000   0.000   0.005   0.000   0.000  -0.001   0.000   0.000   0.000  -0.003  -0.000
  0.000   0.000  -0.001   0.000   0.000   0.000  -0.000  -0.000  -0.000   0.000  -0.000  -0.000  -0.000
  0.000   0.001  -0.000  -0.001   0.000  -0.000   0.000   0.000  -0.000   0.000  -0.000   0.000  -0.000
  0.000  -0.000   0.000  -0.000  -0.001  -0.000  -0.000   0.000  -0.000  -0.000   0.000   0.000   0.000
  0.000  -0.000   0.000   0.000   0.000  -0.000  -0.000  -0.000  -0.000  -0.000   0.000  -0.000   0.000
  0.000   0.000  -0.003   0.000   0.000   0.000   0.000  -0.000  -0.000   0.002  -0.000  -0.000  -0.000
  0.003  -0.005   0.000   0.003   0.000  -0.000  -0.000   0.000   0.000  -0.000   0.000  -0.000   0.000
  0.000   0.000   0.000   0.000  -0.003  -0.000   0.000   0.000  -0.000  -0.000   0.000   0.002   0.000
  0.000  -0.000   0.000   0.000  -0.000  -0.000  -0.000   0.000   0.000  -0.000   0.000   0.000  -0.000


------------------------ aborting loop because EDIFF is reached ----------------------------------------


 


 total charge     
 
# of ion       s       p       d       tot
------------------------------------------
    1        1.064   1.187   0.225   2.476
    2        1.064   1.187   0.225   2.476
    3        0.389   0.496   7.418   8.304
    4        1.339   2.327   0.000   3.666
    5        1.339   2.327   0.000   3.666
    6        1.332   2.396   0.000   3.727
    7        1.332   2.396   0.000   3.727
--------------------------------------------------
tot          7.859  12.316   7.869  28.043
 


 magnetization (x)
 
# of ion       s       p       d       tot
------------------------------------------
    1        0.012   0.008   0.002   0.023
    2        0.012   0.008   0.002   0.023
    3        0.001   0.003   0.820   0.823
    4        0.022  -0.004   0.000   0.018
    5        0.022  -0.004   0.000   0.018
    6        0.000   0.011   0.000   0.011
    7        0.000   0.011   0.000   0.011
--------------------------------------------------
tot          0.069   0.034   0.824   0.927
 
    CHARGE:  cpu time    0.1480: real time    0.1483
    FORLOC:  cpu time    0.0007: real time    0.0007
    FORNL :  cpu time    0.1915: real time    0.1921
    STRESS:  cpu time    3.1353: real time    3.1418
    FORCOR:  cpu time    0.0134: real time    0.0136
    FORHAR:  cpu time    0.0016: real time    0.0017
    MIXING:  cpu time    0.0017: real time    0.0017
    OFIELD:  cpu time    0.0000: real time    0.0001

  FORCE on cell =-STRESS in cart. coord.  units (eV):
  Direction    XX          YY          ZZ          XY          YZ          ZX
  --------------------------------------------------------------------------------------
  Alpha Z    32.81390    32.81390    32.81390
  Ewald   12800.27761 12800.27733-14075.88002    -0.00013    -0.00023     0.00019
  Hartree 13206.00465 13206.00468-12998.67173     0.00003    -0.00001    -0.00002
  E(xc)    -151.59803  -151.59804  -152.44473    -0.00001    -0.00000     0.00001
  Local  -26712.48667-26712.48681 26369.68807    -0.00004     0.00018    -0.00012
  n-local   296.02647   297.55513   294.77631    -2.85977    -0.06451     0.11292
  augment    90.97603    90.97635    94.09864     0.00026     0.00001    -0.00003
  Kinetic   436.21659   441.16032   436.39481    -4.78451     0.65413     1.59686
  Fock        0.00000     0.00000     0.00000     0.00000     0.00000     0.00000
  -------------------------------------------------------------------------------------
  Total       1.46670     1.46670     0.77525    -0.00000    -0.00000     0.00000
  in kB       7.41584     7.41585     3.91978    -0.00000    -0.00000     0.00000
  external pressure =        6.25 kB  Pullay stress =        0.00 kB


 VOLUME and BASIS-vectors are now :
 -----------------------------------------------------------------------------
  energy-cutoff  :      520.00
  volume of cell :      316.88
      direct lattice vectors                 reciprocal lattice vectors
     3.560145166  0.000000000  0.000000000     0.280887423  0.162170389  0.000000000
    -1.780072583  3.083176921  0.000000000     0.000000000  0.324340778  0.000000000
     0.000000000  0.000000000 28.868563000     0.000000000  0.000000000  0.034639757

  length of vectors
     3.560145166  3.560145830 28.868563000     0.324340838  0.324340778  0.034639757


 FORCES acting on ions
    electron-ion (+dipol)            ewald-force                    non-local-force                 convergence-correction
 -----------------------------------------------------------------------------------------------
   0.327E-04 -.278E-04 -.417E+03   0.107E-03 -.476E-04 0.416E+03   0.244E-17 0.688E-18 0.340E+00   -.323E-10 0.156E-10 -.383E-04
   -.327E-04 0.278E-04 0.417E+03   -.107E-03 0.476E-04 -.416E+03   -.230E-17 -.402E-18 -.340E+00   0.323E-10 -.156E-10 0.383E-04
   -.552E-13 0.215E-14 0.481E-11   0.434E-15 0.265E-13 -.568E-13   0.469E-25 -.193E-25 0.356E-26   -.465E-13 0.329E-14 0.446E-12
   -.866E-03 0.469E-03 0.471E+03   -.209E-03 0.158E-03 -.467E+03   0.454E-17 -.127E-16 -.377E+01   0.234E-09 -.136E-09 0.125E-04
   0.866E-03 -.469E-03 -.471E+03   0.209E-03 -.158E-03 0.467E+03   -.176E-16 0.114E-16 0.377E+01   -.234E-09 0.136E-09 -.125E-04
   -.101E-02 0.588E-03 -.100E+04   -.109E-03 0.476E-04 0.101E+04   -.412E-16 0.251E-16 -.533E+01   0.214E-09 -.123E-09 -.997E-04
   0.101E-02 -.588E-03 0.100E+04   0.109E-03 -.476E-04 -.101E+04   0.674E-16 -.153E-16 0.533E+01   -.214E-09 0.123E-09 0.997E-04
 -----------------------------------------------------------------------------------------------
   -.533E-12 -.151E-12 0.348E-10   0.459E-14 0.322E-13 0.114E-12   0.132E-16 0.889E-17 -.888E-15   -.452E-13 -.208E-14 0.940E-12
 
 
 POSITION                                       TOTAL-FORCE (eV/Angst)
 -----------------------------------------------------------------------------------
     -0.00000      2.05545     17.74970        -0.000000     -0.000000     -0.051347
      1.78007      1.02772     11.11886        -0.000000     -0.000000      0.051347
      0.00000      0.00000     14.43428        -0.000000     -0.000000      0.000000
      1.78007      1.02772     13.38319        -0.000000      0.000000      0.000282
     -0.00000      2.05545     15.48537         0.000000      0.000000     -0.000282
      1.78007      1.02772     18.83975         0.000000     -0.000000      0.130564
     -0.00000      2.05545     10.02881        -0.000000      0.000000     -0.130564
 -----------------------------------------------------------------------------------
    total drift:                               -0.000000     -0.000000      0.000000


--------------------------------------------------------------------------------------------------------



  FREE ENERGIE OF THE ION-ELECTRON SYSTEM (eV)
  ---------------------------------------------------
  free  energy   TOTEN  =       -34.80111492 eV

  energy  without entropy=      -34.80086601  energy(sigma->0) =      -34.80099047
 


--------------------------------------------------------------------------------------------------------


    POTLOK:  cpu time    0.0235: real time    0.0235


--------------------------------------------------------------------------------------------------------


     LOOP+:  cpu time 1457.0226: real time 1460.1568
    4ORBIT:  cpu time    0.0000: real time    0.0000
 


 total charge     
 
# of ion       s       p       d       tot
------------------------------------------
    1        1.064   1.187   0.225   2.476
    2        1.064   1.187   0.225   2.476
    3        0.389   0.496   7.418   8.304
    4        1.339   2.327   0.000   3.666
    5        1.339   2.327   0.000   3.666
    6        1.332   2.396   0.000   3.727
    7        1.332   2.396   0.000   3.727
--------------------------------------------------
tot          7.859  12.316   7.869  28.043
 


 magnetization (x)
 
# of ion       s       p       d       tot
------------------------------------------
    1        0.012   0.008   0.002   0.023
    2        0.012   0.008   0.002   0.023
    3        0.001   0.003   0.820   0.823
    4        0.022  -0.004   0.000   0.018
    5        0.022  -0.004   0.000   0.018
    6        0.000   0.011   0.000   0.011
    7        0.000   0.011   0.000   0.011
--------------------------------------------------
tot          0.069   0.034   0.824   0.927
 

 total amount of memory used by VASP MPI-rank0   280769. kBytes
=======================================================================

   base      :      30000. kBytes
   nonl-proj :     226582. kBytes
   fftplans  :        670. kBytes
   grid      :       6343. kBytes
   one-center:        217. kBytes
   wavefun   :      16957. kBytes
 
  
  
 General timing and accounting informations for this job:
 ========================================================
  
                  Total CPU time used (sec):     1470.440
                            User time (sec):     1444.080
                          System time (sec):       26.360
                         Elapsed time (sec):     1474.890
  
                   Maximum memory used (kb):      373588.
                   Average memory used (kb):           0.
  
                          Minor page faults:       277916
                          Major page faults:           10
                 Voluntary context switches:        19026
