 vasp.5.4.4.18Apr17-6-g9f103f2a35 (build Sep 11 2018 16:04:24) complex          
  
 executed on        TETRALITH-B01 date 2021.12.15  23:28:03
 running on  128 total cores
 distrk:  each k-point on  128 cores,    1 groups
 distr:  one band on NCORES_PER_BAND=   1 cores,  128 groups


--------------------------------------------------------------------------------------------------------


 INCAR:
 POTCAR:    PAW_PBE Ga 08Apr2002                  
 POTCAR:    PAW_PBE Co 02Aug2007                  
 POTCAR:    PAW_PBE S 06Sep2000                   

 ----------------------------------------------------------------------------- 
|                                                                             |
|           W    W    AA    RRRRR   N    N  II  N    N   GGGG   !!!           |
|           W    W   A  A   R    R  NN   N  II  NN   N  G    G  !!!           |
|           W    W  A    A  R    R  N N  N  II  N N  N  G       !!!           |
|           W WW W  AAAAAA  RRRRR   N  N N  II  N  N N  G  GGG   !            |
|           WW  WW  A    A  R   R   N   NN  II  N   NN  G    G                |
|           W    W  A    A  R    R  N    N  II  N    N   GGGG   !!!           |
|                                                                             |
|      For optimal performance we recommend to set                            |
|        NCORE= 4 - approx SQRT( number of cores)                             |
|      NCORE specifies how many cores store one orbital (NPAR=cpu/NCORE).     |
|      This setting can  greatly improve the performance of VASP for DFT.     |
|      The default,   NCORE=1            might be grossly inefficient         |
|      on modern multi-core architectures or massively parallel machines.     |
|      Do your own testing !!!!                                               |
|      Unfortunately you need to use the default for GW and RPA calculations. |
|      (for HF NCORE is supported but not extensively tested yet)             |
|                                                                             |
 ----------------------------------------------------------------------------- 

 POTCAR:    PAW_PBE Ga 08Apr2002                  
   VRHFIN =Ga: s2p1                                                             
   LEXCH  = PE                                                                  
   EATOM  =    58.8688 eV,    4.3267 Ry                                         
                                                                                
   TITEL  = PAW_PBE Ga 08Apr2002                                                
   LULTRA =        F    use ultrasoft PP ?                                      
   IUNSCR =        1    unscreen: 0-lin 1-nonlin 2-no                           
   RPACOR =    2.170    partial core radius                                     
   POMASS =   69.723; ZVAL   =    3.000    mass and valenz                      
   RCORE  =    2.600    outmost cutoff radius                                   
   RWIGS  =    2.650; RWIGS  =    1.402    wigner-seitz radius (au A)           
   ENMAX  =  134.678; ENMIN  =  101.009 eV                                      
   ICORE  =        3    local potential                                         
   LCOR   =        T    correct aug charges                                     
   LPAW   =        T    paw PP                                                  
   EAUG   =  320.264                                                            
   DEXC   =    0.000                                                            
   RMAX   =    2.658    core radius for proj-oper                               
   RAUG   =    1.300    factor for augmentation sphere                          
   RDEP   =    2.684    radius for radial grids                                 
   RDEPT  =    2.308    core radius for aug-charge                              
                                                                                
   Atomic configuration                                                         
   10 entries                                                                   
     n  l   j            E        occ.                                          
     1  0  0.50    -10228.7830   2.0000                                         
     2  0  0.50     -1262.1604   2.0000                                         
     2  1  1.50     -1098.6333   6.0000                                         
     3  0  0.50      -148.1110   2.0000                                         
     3  1  1.50       -98.8436   6.0000                                         
     3  2  2.50       -19.1549  10.0000                                         
     4  0  0.50        -8.9483   2.0000                                         
     4  1  0.50        -2.5791   1.0000                                         
     4  2  1.50         5.4423   0.0000                                         
     4  3  2.50        -2.7416   0.0000                                         
   Description                                                                  
     l       E           TYP  RCUT    TYP  RCUT                                 
     0     -8.9483097     23  2.600                                             
     0     -5.8232215     23  2.600                                             
     1     -2.5790793     23  2.600                                             
     1      5.2230115     23  2.600                                             
     2      1.3605826     23  2.600                                             
     3     -1.3605826      7  2.600                                             
  local pseudopotential read in
  partial core-charges read in
  partial kinetic energy density read in
  atomic valenz-charges read in
  non local Contribution for L=           0  read in
    real space projection operators read in
  non local Contribution for L=           0  read in
    real space projection operators read in
  non local Contribution for L=           1  read in
    real space projection operators read in
  non local Contribution for L=           1  read in
    real space projection operators read in
  non local Contribution for L=           2  read in
    real space projection operators read in
    PAW grid and wavefunctions read in
 
   number of l-projection  operators is LMAX  =           5
   number of lm-projection operators is LMMAX =          13
 
 POTCAR:    PAW_PBE Co 02Aug2007                  
   VRHFIN =Co: d8 s1                                                            
   LEXCH  = PE                                                                  
   EATOM  =   813.3670 eV,   59.7808 Ry                                         
                                                                                
   TITEL  = PAW_PBE Co 02Aug2007                                                
   LULTRA =        F    use ultrasoft PP ?                                      
   IUNSCR =        1    unscreen: 0-lin 1-nonlin 2-no                           
   RPACOR =    2.000    partial core radius                                     
   POMASS =   58.933; ZVAL   =    9.000    mass and valenz                      
   RCORE  =    2.300    outmost cutoff radius                                   
   RWIGS  =    2.460; RWIGS  =    1.302    wigner-seitz radius (au A)           
   ENMAX  =  267.968; ENMIN  =  200.976 eV                                      
   RCLOC  =    1.203    cutoff for local pot                                    
   LCOR   =        T    correct aug charges                                     
   LPAW   =        T    paw PP                                                  
   EAUG   =  477.818                                                            
   DEXC   =    0.000                                                            
   RMAX   =    2.360    core radius for proj-oper                               
   RAUG   =    1.300    factor for augmentation sphere                          
   RDEP   =    2.393    radius for radial grids                                 
   RDEPT  =    1.864    core radius for aug-charge                              
                                                                                
   Atomic configuration                                                         
    9 entries                                                                   
     n  l   j            E        occ.                                          
     1  0  0.50     -7587.6674   2.0000                                         
     2  0  0.50      -893.6084   2.0000                                         
     2  1  1.50      -764.5805   6.0000                                         
     3  0  0.50       -97.5973   2.0000                                         
     3  1  1.50       -60.9648   6.0000                                         
     3  2  2.50        -4.2382   8.0000                                         
     4  0  0.50        -4.3746   1.0000                                         
     4  1  1.50        -4.0817   0.0000                                         
     4  3  2.50        -1.3606   0.0000                                         
   Description                                                                  
     l       E           TYP  RCUT    TYP  RCUT                                 
     2     -4.2382362     23  2.300                                             
     2     -5.5988188     23  2.300                                             
     0     -4.3745797     23  2.300                                             
     0      5.7660125     23  2.300                                             
     1     -2.7211652     23  2.300                                             
     1     16.9860234     23  2.300                                             
  local pseudopotential read in
  partial core-charges read in
  partial kinetic energy density read in
  atomic valenz-charges read in
  non local Contribution for L=           2  read in
    real space projection operators read in
  non local Contribution for L=           2  read in
    real space projection operators read in
  non local Contribution for L=           0  read in
    real space projection operators read in
  non local Contribution for L=           0  read in
    real space projection operators read in
  non local Contribution for L=           1  read in
    real space projection operators read in
  non local Contribution for L=           1  read in
    real space projection operators read in
    PAW grid and wavefunctions read in
 
   number of l-projection  operators is LMAX  =           6
   number of lm-projection operators is LMMAX =          18
 
 POTCAR:    PAW_PBE S 06Sep2000                   
   VRHFIN =S : s2p4                                                             
   LEXCH  = PE                                                                  
   EATOM  =   276.8230 eV,   20.3459 Ry                                         
                                                                                
   TITEL  = PAW_PBE S 06Sep2000                                                 
   LULTRA =        F    use ultrasoft PP ?                                      
   IUNSCR =        1    unscreen: 0-lin 1-nonlin 2-no                           
   RPACOR =    1.500    partial core radius                                     
   POMASS =   32.066; ZVAL   =    6.000    mass and valenz                      
   RCORE  =    1.900    outmost cutoff radius                                   
   RWIGS  =    2.200; RWIGS  =    1.164    wigner-seitz radius (au A)           
   ENMAX  =  258.689; ENMIN  =  194.016 eV                                      
   ICORE  =        2    local potential                                         
   LCOR   =        T    correct aug charges                                     
   LPAW   =        T    paw PP                                                  
   EAUG   =  335.092                                                            
   DEXC   =    0.000                                                            
   RMAX   =    1.942    core radius for proj-oper                               
   RAUG   =    1.300    factor for augmentation sphere                          
   RDEP   =    1.954    radius for radial grids                                 
   RDEPT  =    1.744    core radius for aug-charge                              
                                                                                
   Atomic configuration                                                         
    6 entries                                                                   
     n  l   j            E        occ.                                          
     1  0  0.50     -2405.8406   2.0000                                         
     2  0  0.50      -211.7007   2.0000                                         
     2  1  1.50      -156.4958   6.0000                                         
     3  0  0.50       -17.2562   2.0000                                         
     3  1  0.50        -7.0085   4.0000                                         
     3  2  1.50        -6.8029   0.0000                                         
   Description                                                                  
     l       E           TYP  RCUT    TYP  RCUT                                 
     0    -17.2561641     23  1.900                                             
     0    -15.8743224     23  1.900                                             
     1     -7.0085400     23  1.900                                             
     1     -2.7779785     23  1.900                                             
     2     -6.8029130     23  1.900                                             
  local pseudopotential read in
  partial core-charges read in
  partial kinetic energy density read in
  atomic valenz-charges read in
  non local Contribution for L=           0  read in
    real space projection operators read in
  non local Contribution for L=           0  read in
    real space projection operators read in
  non local Contribution for L=           1  read in
    real space projection operators read in
  non local Contribution for L=           1  read in
    real space projection operators read in
    PAW grid and wavefunctions read in
 
   number of l-projection  operators is LMAX  =           4
   number of lm-projection operators is LMMAX =           8
 

 ----------------------------------------------------------------------------- 
|                                                                             |
|  ADVICE TO THIS USER RUNNING 'VASP/VAMP'   (HEAR YOUR MASTER'S VOICE ...):  |
|                                                                             |
|      You enforced a specific xc-type in the INCAR file,                     |
|      a different type was found on the POTCAR file                          |
|          I HOPE YOU KNOW, WHAT YOU ARE  DOING                               |
|                                                                             |
 ----------------------------------------------------------------------------- 

  PAW_PBE Ga 08Apr2002                  :
 energy of atom  1       EATOM=  -58.8688
 kinetic energy error for atom=    0.0000 (will be added to EATOM!!)
  PAW_PBE Co 02Aug2007                  :
 energy of atom  2       EATOM= -813.3670
 kinetic energy error for atom=    0.0028 (will be added to EATOM!!)
  PAW_PBE S 06Sep2000                   :
 energy of atom  3       EATOM= -276.8230
 kinetic energy error for atom=    0.0016 (will be added to EATOM!!)
 
 
 POSCAR: Ga2 Co1 S4                              
  positions in direct lattice
  No initial velocities read in
 exchange correlation table for  LEXCH =       14
   RHO(1)=    0.500       N(1)  =     2000
   RHO(2)=  100.500       N(2)  =     4000
 


--------------------------------------------------------------------------------------------------------


 ion  position               nearest neighbor table
   1  0.333  0.667  0.617-   5 2.22   6 2.35   6 2.35   6 2.35
   2  0.667  0.333  0.383-   4 2.22   7 2.35   7 2.35   7 2.35
   3  0.000  0.000  0.500-   4 2.41   5 2.41   4 2.41   5 2.41   4 2.41   5 2.41
   4  0.667  0.333  0.459-   2 2.22   3 2.41   3 2.41   3 2.41
   5  0.333  0.667  0.541-   1 2.22   3 2.41   3 2.41   3 2.41
   6  0.667  0.333  0.654-   1 2.35   1 2.35   1 2.35
   7  0.333  0.667  0.346-   2 2.35   2 2.35   2 2.35
 
  LATTYP: Found a hexagonal cell.
 ALAT       =     3.6412867115
 C/A-ratio  =     7.9281213723
  
  Lattice vectors:
  
 A1 = (   3.6412860000,   0.0000000000,   0.0000000000)
 A2 = (  -1.8206430000,   3.1534470000,   0.0000000000)
 A3 = (   0.0000000000,   0.0000000000,  28.8685630000)


Analysis of symmetry for initial positions (statically):
=====================================================================
 Subroutine PRICEL returns:
 Original cell was already a primitive cell.
 

 Routine SETGRP: Setting up the symmetry group for a 
 hexagonal supercell.


 Subroutine GETGRP returns: Found 12 space group operations
 (whereof 12 operations were pure point group operations)
 out of a pool of 24 trial point group operations.


The static configuration has the point symmetry D_3d.


Analysis of symmetry for dynamics (positions and initial velocities):
=====================================================================
 Subroutine PRICEL returns:
 Original cell was already a primitive cell.
 

 Routine SETGRP: Setting up the symmetry group for a 
 hexagonal supercell.


 Subroutine GETGRP returns: Found 12 space group operations
 (whereof 12 operations were pure point group operations)
 out of a pool of 24 trial point group operations.


The dynamic configuration has the point symmetry D_3d.


Analysis of structural, dynamic, and magnetic symmetry:
=====================================================================
 Subroutine PRICEL returns:
 Original cell was already a primitive cell.
 

 Routine SETGRP: Setting up the symmetry group for a 
 hexagonal supercell.


 Subroutine GETGRP returns: Found 12 space group operations
 (whereof 12 operations were pure point group operations)
 out of a pool of 24 trial point group operations.


The magnetic configuration has the point symmetry D_3d.


 Subroutine INISYM returns: Found 12 space group operations
 (whereof 12 operations are pure point group operations),
 and found     1 'primitive' translations

 
 
 KPOINTS: K-Spacing Value to Generate K-Mesh: 0.04

Automatic generation of k-mesh.
Space group operators:
 irot       det(A)        alpha          n_x          n_y          n_z        tau_x        tau_y        tau_z
    1     1.000000     0.000000     1.000000     0.000000     0.000000     0.000000     0.000000     0.000000
    2    -1.000000     0.000000     1.000000     0.000000     0.000000     0.000000     0.000000     0.000000
    3     1.000000   120.000000     0.000000     0.000000    -1.000000     0.000000     0.000000     0.000000
    4    -1.000000   120.000000     0.000000     0.000000    -1.000000     0.000000     0.000000     0.000000
    5     1.000000   120.000000     0.000000     0.000000     1.000000     0.000000     0.000000     0.000000
    6    -1.000000   120.000000     0.000000     0.000000     1.000000     0.000000     0.000000     0.000000
    7     1.000000   180.000000     1.000000    -0.000000     0.000000     0.000000     0.000000     0.000000
    8    -1.000000   180.000000     1.000000    -0.000000     0.000000     0.000000     0.000000     0.000000
    9     1.000000   180.000000     0.500000    -0.866025     0.000000     0.000000     0.000000     0.000000
   10    -1.000000   180.000000     0.500000    -0.866025     0.000000     0.000000     0.000000     0.000000
   11     1.000000   180.000000    -0.500000    -0.866025     0.000000     0.000000     0.000000     0.000000
   12    -1.000000   180.000000    -0.500000    -0.866025     0.000000     0.000000     0.000000     0.000000
 
 Subroutine IBZKPT returns following result:
 ===========================================
 
 Found     12 irreducible k-points:
 
 Following reciprocal coordinates:
            Coordinates               Weight
  0.000000  0.000000  0.000000      1.000000
  0.111111 -0.000000  0.000000      6.000000
  0.222222 -0.000000  0.000000      6.000000
  0.333333  0.000000  0.000000      6.000000
  0.444444 -0.000000  0.000000      6.000000
  0.111111  0.111111  0.000000      6.000000
  0.222222  0.111111  0.000000     12.000000
  0.333333  0.111111  0.000000     12.000000
  0.444444  0.111111  0.000000      6.000000
  0.222222  0.222222  0.000000      6.000000
  0.333333  0.222222  0.000000     12.000000
  0.333333  0.333333  0.000000      2.000000
 
 Following cartesian coordinates:
            Coordinates               Weight
  0.000000  0.000000  0.000000      1.000000
  0.030514  0.017617  0.000000      6.000000
  0.061028  0.035235  0.000000      6.000000
  0.091543  0.052852  0.000000      6.000000
  0.122057  0.070470  0.000000      6.000000
  0.030514  0.052852  0.000000      6.000000
  0.061028  0.070470  0.000000     12.000000
  0.091543  0.088087  0.000000     12.000000
  0.122057  0.105704  0.000000      6.000000
  0.061028  0.105704  0.000000      6.000000
  0.091543  0.123322  0.000000     12.000000
  0.091543  0.158557  0.000000      2.000000
 


--------------------------------------------------------------------------------------------------------




 Dimension of arrays:
   k-points           NKPTS =     12   k-points in BZ     NKDIM =     12   number of bands    NBANDS=    128
   number of dos      NEDOS =   3501   number of ions     NIONS =      7
   non local maximal  LDIM  =      6   non local SUM 2l+1 LMDIM =     18
   total plane-waves  NPLWV =  64800
   max r-space proj   IRMAX =      1   max aug-charges    IRDMAX=  14248
   dimension x,y,z NGX =    20 NGY =   20 NGZ =  162
   dimension x,y,z NGXF=    40 NGYF=   40 NGZF=  324
   support grid    NGXF=    40 NGYF=   40 NGZF=  324
   ions per type =               2   1   4
   NGX,Y,Z   is equivalent  to a cutoff of   9.13,  9.13,  9.33 a.u.
   NGXF,Y,Z  is equivalent  to a cutoff of  18.26, 18.26, 18.66 a.u.

 SYSTEM =  unknown system                          
 POSCAR =  Ga2 Co1 S4                              

 Startparameter for this run:
   NWRITE =      2    write-flag & timer
   PREC   = normal    normal or accurate (medium, high low for compatibility)
   ISTART =      0    job   : 0-new  1-cont  2-samecut
   ICHARG =      2    charge: 1-file 2-atom 10-const
   ISPIN  =      2    spin polarized calculation?
   LNONCOLLINEAR =      F non collinear calculations
   LSORBIT =      F    spin-orbit coupling
   INIWAV =      1    electr: 0-lowe 1-rand  2-diag
   LASPH  =      F    aspherical Exc in radial PAW
   METAGGA=      F    non-selfconsistent MetaGGA calc.

 Electronic Relaxation 1
   ENCUT  =  520.0 eV  38.22 Ry    6.18 a.u.   6.77  6.77 53.68*2*pi/ulx,y,z
   ENINI  =  520.0     initial cutoff
   ENAUG  =  477.8 eV  augmentation charge cutoff
   NELM   =     40;   NELMIN=  6; NELMDL= -5     # of ELM steps 
   EDIFF  = 0.1E-05   stopping-criterion for ELM
   LREAL  =      F    real-space projection
   NLSPLINE    = F    spline interpolate recip. space projectors
   LCOMPAT=      F    compatible to vasp.4.4
   GGA_COMPAT  = T    GGA compatible to vasp.4.4-vasp.4.6
   LMAXPAW     = -100 max onsite density
   LMAXMIX     =    2 max onsite mixed and CHGCAR
   VOSKOWN=      0    Vosko Wilk Nusair interpolation
   ROPT   =    0.00000   0.00000   0.00000
 Ionic relaxation
   EDIFFG = -.1E-01   stopping-criterion for IOM
   NSW    =    300    number of steps for IOM
   NBLOCK =      1;   KBLOCK =    300    inner block; outer block 
   IBRION =      2    ionic relax: 0-MD 1-quasi-New 2-CG
   NFREE  =      1    steps in history (QN), initial steepest desc. (CG)
   ISIF   =      3    stress and relaxation
   IWAVPR =     11    prediction:  0-non 1-charg 2-wave 3-comb
   ISYM   =      2    0-nonsym 1-usesym 2-fastsym
   LCORR  =      T    Harris-Foulkes like correction to forces

   POTIM  = 0.5000    time-step for ionic-motion
   TEIN   =    0.0    initial temperature
   TEBEG  =    0.0;   TEEND  =   0.0 temperature during run
   SMASS  =  -3.00    Nose mass-parameter (am)
   estimated Nose-frequenzy (Omega)   =  0.10E-29 period in steps =****** mass=  -0.303E-27a.u.
   SCALEE = 1.0000    scale energy and forces
   NPACO  =    256;   APACO  = 16.0  distance and # of slots for P.C.
   PSTRESS=    0.0 pullay stress

  Mass of Ions in am
   POMASS =  69.72 58.93 32.07
  Ionic Valenz
   ZVAL   =   3.00  9.00  6.00
  Atomic Wigner-Seitz radii
   RWIGS  =  -1.00 -1.00 -1.00
  virtual crystal weights 
   VCA    =   1.00  1.00  1.00
   NELECT =      39.0000    total number of electrons
   NUPDOWN=      -1.0000    fix difference up-down

 DOS related values:
   EMIN   =  10.00;   EMAX   =-10.00  energy-range for DOS
   EFERMI =   0.00
   ISMEAR =     0;   SIGMA  =   0.02  broadening in eV -4-tet -1-fermi 0-gaus

 Electronic relaxation 2 (details)
   IALGO  =     38    algorithm
   LDIAG  =      T    sub-space diagonalisation (order eigenvalues)
   LSUBROT=      F    optimize rotation matrix (better conditioning)
   TURBO    =      0    0=normal 1=particle mesh
   IRESTART =      0    0=no restart 2=restart with 2 vectors
   NREBOOT  =      0    no. of reboots
   NMIN     =      0    reboot dimension
   EREF     =   0.00    reference energy to select bands
   IMIX   =      4    mixing-type and parameters
     AMIX     =   0.40;   BMIX     =  1.00
     AMIX_MAG =   1.60;   BMIX_MAG =  1.00
     AMIN     =   0.10
     WC   =   100.;   INIMIX=   1;  MIXPRE=   1;  MAXMIX= -45

 Intra band minimization:
   WEIMIN = 0.0010     energy-eigenvalue tresh-hold
   EBREAK =  0.20E-08  absolut break condition
   DEPER  =   0.30     relativ break condition  

   TIME   =   0.40     timestep for ELM

  volume/ion in A,a.u.               =      47.36       319.57
  Fermi-wavevector in a.u.,A,eV,Ry     =   0.802185  1.515910  8.755360  0.643501
  Thomas-Fermi vector in A             =   1.909814
 
 Write flags
   LWAVE        =      F    write WAVECAR
   LDOWNSAMPLE  =      F    k-point downsampling of WAVECAR
   LCHARG       =      F    write CHGCAR
   LVTOT        =      F    write LOCPOT, total local potential
   LVHAR        =      F    write LOCPOT, Hartree potential only
   LELF         =      F    write electronic localiz. function (ELF)
   LORBIT       =     11    0 simple, 1 ext, 2 COOP (PROOUT), +10 PAW based schemes


 Dipole corrections
   LMONO  =      F    monopole corrections only (constant potential shift)
   LDIPOL =      F    correct potential (dipole corrections)
   IDIPOL =      0    1-x, 2-y, 3-z, 4-all directions 
   EPSILON=  1.0000000 bulk dielectric constant

 Exchange correlation treatment:
   GGA     =    PS    GGA type
   LEXCH   =    14    internal setting for exchange type
   VOSKOWN=      0    Vosko Wilk Nusair interpolation
   LHFCALC =     F    Hartree Fock is set to
   LHFONE  =     F    Hartree Fock one center treatment
   AEXX    =    0.0000 exact exchange contribution

 Linear response parameters
   LEPSILON=     F    determine dielectric tensor
   LRPA    =     F    only Hartree local field effects (RPA)
   LNABLA  =     F    use nabla operator in PAW spheres
   LVEL    =     F    velocity operator in full k-point grid
   LINTERFAST=   F  fast interpolation
   KINTER  =     0    interpolate to denser k-point grid
   CSHIFT  =0.1000    complex shift for real part using Kramers Kronig
   OMEGAMAX=  -1.0    maximum frequency
   DEG_THRESHOLD= 0.2000000E-02 threshold for treating states as degnerate
   RTIME   =   -0.100 relaxation time in fs
  (WPLASMAI=    0.000 imaginary part of plasma frequency in eV, 0.658/RTIME)
   DFIELD  = 0.0000000 0.0000000 0.0000000 field for delta impulse in time
 
 Orbital magnetization related:
   ORBITALMAG=     F  switch on orbital magnetization
   LCHIMAG   =     F  perturbation theory with respect to B field
   DQ        =  0.001000  dq finite difference perturbation B field
   LLRAUG    =     F  two centre corrections for induced B field



--------------------------------------------------------------------------------------------------------


 conjugate gradient relaxation of ions
 charge density and potential will be updated during run
 spin polarized calculation
 Variant of blocked Davidson
 Davidson routine will perform the subspace rotation
 perform sub-space diagonalisation
    after iterative eigenvector-optimisation
 modified Broyden-mixing scheme, WC =      100.0
 initial mixing is a Kerker type mixing with AMIX =  0.4000 and BMIX =      1.0000
 Hartree-type preconditioning will be used
 using additional bands          108
 reciprocal scheme for non local part
 use partial core corrections
 calculate Harris-corrections to forces 
   (improved forces if not selfconsistent)
 use gradient corrections 
 use of overlap-Matrix (Vanderbilt PP)
 Gauss-broadening in eV      SIGMA  =   0.02


--------------------------------------------------------------------------------------------------------


  energy-cutoff  :      520.00
  volume of cell :      331.49
      direct lattice vectors                 reciprocal lattice vectors
     3.641286000  0.000000000  0.000000000     0.274628249  0.158556652  0.000000000
    -1.820643000  3.153447000  0.000000000     0.000000000  0.317113305  0.000000000
     0.000000000  0.000000000 28.868563000     0.000000000  0.000000000  0.034639757

  length of vectors
     3.641286000  3.641286711 28.868563000     0.317113367  0.317113305  0.034639757


 
 k-points in units of 2pi/SCALE and weight: K-Spacing Value to Generate K-Mesh: 0.04
   0.00000000  0.00000000  0.00000000       0.012
   0.03051425  0.01761741  0.00000000       0.074
   0.06102850  0.03523481  0.00000000       0.074
   0.09154275  0.05285222  0.00000000       0.074
   0.12205700  0.07046962  0.00000000       0.074
   0.03051425  0.05285222  0.00000000       0.074
   0.06102850  0.07046962  0.00000000       0.148
   0.09154275  0.08808703  0.00000000       0.148
   0.12205700  0.10570443  0.00000000       0.074
   0.06102850  0.10570443  0.00000000       0.074
   0.09154275  0.12332184  0.00000000       0.148
   0.09154275  0.15855665  0.00000000       0.025
 
 k-points in reciprocal lattice and weights: K-Spacing Value to Generate K-Mesh: 0.04
   0.00000000  0.00000000  0.00000000       0.012
   0.11111111 -0.00000000  0.00000000       0.074
   0.22222222 -0.00000000  0.00000000       0.074
   0.33333333  0.00000000  0.00000000       0.074
   0.44444444 -0.00000000  0.00000000       0.074
   0.11111111  0.11111111  0.00000000       0.074
   0.22222222  0.11111111  0.00000000       0.148
   0.33333333  0.11111111  0.00000000       0.148
   0.44444444  0.11111111  0.00000000       0.074
   0.22222222  0.22222222  0.00000000       0.074
   0.33333333  0.22222222  0.00000000       0.148
   0.33333333  0.33333333  0.00000000       0.025
 
 position of ions in fractional coordinates (direct lattice) 
   0.33333300  0.66666700  0.61740500
   0.66666700  0.33333300  0.38259500
   0.00000000  0.00000000  0.50000000
   0.66666700  0.33333300  0.45943400
   0.33333300  0.66666700  0.54056600
   0.66666700  0.33333300  0.65366100
   0.33333300  0.66666700  0.34633900
 
 position of ions in cartesian coordinates  (Angst):
  -0.00000182  2.10229905 17.82359514
   1.82064482  1.05114795 11.04496786
   0.00000000  0.00000000 14.43428150
   1.82064482  1.05114795 13.26319937
  -0.00000182  2.10229905 15.60536363
   1.82064482  1.05114795 18.87025376
  -0.00000182  2.10229905  9.99830924
 


--------------------------------------------------------------------------------------------------------


 k-point  1 :   0.0000 0.0000 0.0000  plane waves:    8927
 k-point  2 :   0.1111-0.0000 0.0000  plane waves:    8905
 k-point  3 :   0.2222-0.0000 0.0000  plane waves:    8904
 k-point  4 :   0.3333 0.0000 0.0000  plane waves:    8932
 k-point  5 :   0.4444-0.0000 0.0000  plane waves:    8968
 k-point  6 :   0.1111 0.1111 0.0000  plane waves:    8913
 k-point  7 :   0.2222 0.1111 0.0000  plane waves:    8927
 k-point  8 :   0.3333 0.1111 0.0000  plane waves:    8927
 k-point  9 :   0.4444 0.1111 0.0000  plane waves:    8964
 k-point 10 :   0.2222 0.2222 0.0000  plane waves:    8889
 k-point 11 :   0.3333 0.2222 0.0000  plane waves:    8929
 k-point 12 :   0.3333 0.3333 0.0000  plane waves:    8901

 maximum and minimum number of plane-waves per node :      8968     8889

 maximum number of plane-waves:      8968
 maximum index in each direction: 
   IXMAX=    6   IYMAX=    6   IZMAX=   53
   IXMIN=   -7   IYMIN=   -7   IZMIN=  -53


 serial   3D FFT for wavefunctions
 parallel 3D FFT for charge:
    minimum data exchange during FFTs selected (reduces bandwidth)


 total amount of memory used by VASP MPI-rank0    88898. kBytes
=======================================================================

   base      :      30000. kBytes
   nonl-proj :      48130. kBytes
   fftplans  :        670. kBytes
   grid      :       6343. kBytes
   one-center:        217. kBytes
   wavefun   :       3538. kBytes
 
     INWAV:  cpu time    0.0000: real time    0.0000
 Broyden mixing: mesh for mixing (old mesh)
   NGX = 13   NGY = 13   NGZ =107
  (NGX  = 40   NGY  = 40   NGZ  =324)
  gives a total of  18083 points

 initial charge density was supplied:
 charge density of overlapping atoms calculated
 number of electron      39.0000000 magnetization       7.0000000
 keeping initial charge density in first step


--------------------------------------------------------------------------------------------------------


 Maximum index for augmentation-charges          425 (set IRDMAX)


--------------------------------------------------------------------------------------------------------


 First call to EWALD:  gamma=   0.256
 Maximum number of real-space cells 5x 5x 1
 Maximum number of reciprocal cells 2x 2x10

    FEWALD:  cpu time    0.0016: real time    0.0019


--------------------------------------- Iteration      1(   1)  ---------------------------------------


    POTLOK:  cpu time    0.0246: real time    0.0315
    SETDIJ:  cpu time    0.0063: real time    0.0071
     EDDAV:  cpu time    3.1691: real time    3.1772
       DOS:  cpu time    0.0016: real time    0.0027
    --------------------------------------------
      LOOP:  cpu time    3.2017: real time    3.2185

 eigenvalue-minimisations  :  6144
 total energy-change (2. order) : 0.7252588E+02  (-0.1673836E+04)
 number of electron      39.0000000 magnetization       7.0000000
 augmentation part       39.0000000 magnetization       7.0000000

 Free energy of the ion-electron system (eV)
  ---------------------------------------------------
  alpha Z        PSCENC =        31.36777427
  Ewald energy   TEWEN  =     10736.83356339
  -Hartree energ DENC   =    -12596.25627445
  -exchange      EXHF   =         0.00000000
  -V(xc)+E(xc)   XCENC  =        29.83577690
  PAW double counting   =      1711.68586003    -1704.53122651
  entropy T*S    EENTRO =        -0.00038616
  eigenvalues    EBANDS =      -170.81070710
  atomic energy  EATOM  =      2034.40150045
  Solvation  Ediel_sol  =         0.00000000
  ---------------------------------------------------
  free energy    TOTEN  =        72.52588082 eV

  energy without entropy =       72.52626698  energy(sigma->0) =       72.52607390


--------------------------------------------------------------------------------------------------------




--------------------------------------- Iteration      1(   2)  ---------------------------------------


     EDDAV:  cpu time    7.1555: real time    7.1713
       DOS:  cpu time    0.0011: real time    0.0011
    --------------------------------------------
      LOOP:  cpu time    7.1566: real time    7.1724

 eigenvalue-minimisations  :  9216
 total energy-change (2. order) :-0.1082591E+03  (-0.1082165E+03)
 number of electron      39.0000000 magnetization       7.0000000
 augmentation part       39.0000000 magnetization       7.0000000

 Free energy of the ion-electron system (eV)
  ---------------------------------------------------
  alpha Z        PSCENC =        31.36777427
  Ewald energy   TEWEN  =     10736.83356339
  -Hartree energ DENC   =    -12596.25627445
  -exchange      EXHF   =         0.00000000
  -V(xc)+E(xc)   XCENC  =        29.83577690
  PAW double counting   =      1711.68586003    -1704.53122651
  entropy T*S    EENTRO =        -0.00073289
  eigenvalues    EBANDS =      -279.06950901
  atomic energy  EATOM  =      2034.40150045
  Solvation  Ediel_sol  =         0.00000000
  ---------------------------------------------------
  free energy    TOTEN  =       -35.73326783 eV

  energy without entropy =      -35.73253493  energy(sigma->0) =      -35.73290138


--------------------------------------------------------------------------------------------------------




--------------------------------------- Iteration      1(   3)  ---------------------------------------


     EDDAV:  cpu time    3.2764: real time    3.2835
       DOS:  cpu time    0.0013: real time    0.0013
    --------------------------------------------
      LOOP:  cpu time    3.2777: real time    3.2848

 eigenvalue-minimisations  :  6144
 total energy-change (2. order) :-0.7117693E+00  (-0.7117574E+00)
 number of electron      39.0000000 magnetization       7.0000000
 augmentation part       39.0000000 magnetization       7.0000000

 Free energy of the ion-electron system (eV)
  ---------------------------------------------------
  alpha Z        PSCENC =        31.36777427
  Ewald energy   TEWEN  =     10736.83356339
  -Hartree energ DENC   =    -12596.25627445
  -exchange      EXHF   =         0.00000000
  -V(xc)+E(xc)   XCENC  =        29.83577690
  PAW double counting   =      1711.68586003    -1704.53122651
  entropy T*S    EENTRO =        -0.00077679
  eigenvalues    EBANDS =      -279.78123446
  atomic energy  EATOM  =      2034.40150045
  Solvation  Ediel_sol  =         0.00000000
  ---------------------------------------------------
  free energy    TOTEN  =       -36.44503717 eV

  energy without entropy =      -36.44426039  energy(sigma->0) =      -36.44464878


--------------------------------------------------------------------------------------------------------




--------------------------------------- Iteration      1(   4)  ---------------------------------------


     EDDAV:  cpu time   13.9725: real time   14.0022
       DOS:  cpu time    0.0010: real time    0.0010
    --------------------------------------------
      LOOP:  cpu time   13.9735: real time   14.0032

 eigenvalue-minimisations  : 12288
 total energy-change (2. order) :-0.3074717E-02  (-0.3074716E-02)
 number of electron      39.0000000 magnetization       7.0000000
 augmentation part       39.0000000 magnetization       7.0000000

 Free energy of the ion-electron system (eV)
  ---------------------------------------------------
  alpha Z        PSCENC =        31.36777427
  Ewald energy   TEWEN  =     10736.83356339
  -Hartree energ DENC   =    -12596.25627445
  -exchange      EXHF   =         0.00000000
  -V(xc)+E(xc)   XCENC  =        29.83577690
  PAW double counting   =      1711.68586003    -1704.53122651
  entropy T*S    EENTRO =        -0.00077677
  eigenvalues    EBANDS =      -279.78430920
  atomic energy  EATOM  =      2034.40150045
  Solvation  Ediel_sol  =         0.00000000
  ---------------------------------------------------
  free energy    TOTEN  =       -36.44811189 eV

  energy without entropy =      -36.44733512  energy(sigma->0) =      -36.44772350


--------------------------------------------------------------------------------------------------------




--------------------------------------- Iteration      1(   5)  ---------------------------------------


     EDDAV:  cpu time    3.2838: real time    3.2907
       DOS:  cpu time    0.0010: real time    0.0010
    CHARGE:  cpu time    0.0471: real time    0.0484
    MIXING:  cpu time    0.0018: real time    0.0023
    --------------------------------------------
      LOOP:  cpu time    3.3337: real time    3.3424

 eigenvalue-minimisations  :  6144
 total energy-change (2. order) :-0.9340692E-07  (-0.9338739E-07)
 number of electron      39.0000017 magnetization       6.5658096
 augmentation part        0.0202704 magnetization       5.9943000

 Broyden mixing:
  rms(total) = 0.19212E+01    rms(broyden)= 0.19211E+01
  rms(prec ) = 0.19552E+01
  weight for this iteration     100.00

 Free energy of the ion-electron system (eV)
  ---------------------------------------------------
  alpha Z        PSCENC =        31.36777427
  Ewald energy   TEWEN  =     10736.83356339
  -Hartree energ DENC   =    -12596.25627445
  -exchange      EXHF   =         0.00000000
  -V(xc)+E(xc)   XCENC  =        29.83577690
  PAW double counting   =      1711.68586003    -1704.53122651
  entropy T*S    EENTRO =        -0.00077677
  eigenvalues    EBANDS =      -279.78430929
  atomic energy  EATOM  =      2034.40150045
  Solvation  Ediel_sol  =         0.00000000
  ---------------------------------------------------
  free energy    TOTEN  =       -36.44811198 eV

  energy without entropy =      -36.44733521  energy(sigma->0) =      -36.44772360


--------------------------------------------------------------------------------------------------------




--------------------------------------- Iteration      1(   6)  ---------------------------------------


    POTLOK:  cpu time    0.0178: real time    0.0178
    SETDIJ:  cpu time    0.0060: real time    0.0060
     EDDAV:  cpu time   10.2857: real time   10.3076
       DOS:  cpu time    0.0016: real time    0.0016
    CHARGE:  cpu time    0.0421: real time    0.0423
    MIXING:  cpu time    0.0008: real time    0.0010
    --------------------------------------------
      LOOP:  cpu time   10.3540: real time   10.3762

 eigenvalue-minimisations  : 10624
 total energy-change (2. order) :-0.5812912E+00  (-0.1431544E+02)
 number of electron      39.0000012 magnetization       6.4304679
 augmentation part        2.9574217 magnetization       5.4211467

 Broyden mixing:
  rms(total) = 0.26464E+01    rms(broyden)= 0.26464E+01
  rms(prec ) = 0.27534E+01
  weight for this iteration     100.00

 eigenvalues of (default mixing * dielectric matrix)
  average eigenvalue GAMMA=   0.3760
  0.3760

 Free energy of the ion-electron system (eV)
  ---------------------------------------------------
  alpha Z        PSCENC =        31.36777427
  Ewald energy   TEWEN  =     10736.83356339
  -Hartree energ DENC   =    -12569.92318523
  -exchange      EXHF   =         0.00000000
  -V(xc)+E(xc)   XCENC  =        32.44357547
  PAW double counting   =      2266.99709080    -2251.64044916
  entropy T*S    EENTRO =        -0.00042112
  eigenvalues    EBANDS =      -317.50885207
  atomic energy  EATOM  =      2034.40150045
  Solvation  Ediel_sol  =         0.00000000
  ---------------------------------------------------
  free energy    TOTEN  =       -37.02940319 eV

  energy without entropy =      -37.02898207  energy(sigma->0) =      -37.02919263


--------------------------------------------------------------------------------------------------------




--------------------------------------- Iteration      1(   7)  ---------------------------------------


    POTLOK:  cpu time    0.0171: real time    0.0172
    SETDIJ:  cpu time    0.0055: real time    0.0055
     EDDAV:  cpu time   10.4672: real time   10.4898
       DOS:  cpu time    0.0012: real time    0.0012
    CHARGE:  cpu time    0.0423: real time    0.0424
    MIXING:  cpu time    0.0006: real time    0.0006
    --------------------------------------------
      LOOP:  cpu time   10.5340: real time   10.5566

 eigenvalue-minimisations  : 10752
 total energy-change (2. order) : 0.6872840E+01  (-0.6244718E+01)
 number of electron      39.0000014 magnetization       5.8305089
 augmentation part        0.8050258 magnetization       5.3509079

 Broyden mixing:
  rms(total) = 0.89211E+00    rms(broyden)= 0.89205E+00
  rms(prec ) = 0.89822E+00
  weight for this iteration     100.00

 eigenvalues of (default mixing * dielectric matrix)
  average eigenvalue GAMMA=   0.7654
  1.2170  0.3138

 Free energy of the ion-electron system (eV)
  ---------------------------------------------------
  alpha Z        PSCENC =        31.36777427
  Ewald energy   TEWEN  =     10736.83356339
  -Hartree energ DENC   =    -12607.04383537
  -exchange      EXHF   =         0.00000000
  -V(xc)+E(xc)   XCENC  =        33.15926893
  PAW double counting   =      2473.66086164    -2466.21018156
  entropy T*S    EENTRO =        -0.00119031
  eigenvalues    EBANDS =      -266.32432508
  atomic energy  EATOM  =      2034.40150045
  Solvation  Ediel_sol  =         0.00000000
  ---------------------------------------------------
  free energy    TOTEN  =       -30.15656365 eV

  energy without entropy =      -30.15537334  energy(sigma->0) =      -30.15596849


--------------------------------------------------------------------------------------------------------




--------------------------------------- Iteration      1(   8)  ---------------------------------------


    POTLOK:  cpu time    0.0184: real time    0.0185
    SETDIJ:  cpu time    0.0054: real time    0.0054
     EDDAV:  cpu time   13.6697: real time   13.6986
       DOS:  cpu time    0.0013: real time    0.0013
    CHARGE:  cpu time    0.0438: real time    0.0439
    MIXING:  cpu time    0.0005: real time    0.0005
    --------------------------------------------
      LOOP:  cpu time   13.7392: real time   13.7683

 eigenvalue-minimisations  : 12160
 total energy-change (2. order) : 0.6170212E+00  (-0.1590719E+00)
 number of electron      39.0000015 magnetization       5.2777453
 augmentation part        0.6408225 magnetization       4.7521213

 Broyden mixing:
  rms(total) = 0.60030E+00    rms(broyden)= 0.60030E+00
  rms(prec ) = 0.61041E+00
  weight for this iteration     100.00

 eigenvalues of (default mixing * dielectric matrix)
  average eigenvalue GAMMA=   1.0060
  1.9952  0.3282  0.6946

 Free energy of the ion-electron system (eV)
  ---------------------------------------------------
  alpha Z        PSCENC =        31.36777427
  Ewald energy   TEWEN  =     10736.83356339
  -Hartree energ DENC   =    -12630.23818517
  -exchange      EXHF   =         0.00000000
  -V(xc)+E(xc)   XCENC  =        34.05187082
  PAW double counting   =      3164.95396200    -3158.82898088
  entropy T*S    EENTRO =        -0.00190131
  eigenvalues    EBANDS =      -242.07914598
  atomic energy  EATOM  =      2034.40150045
  Solvation  Ediel_sol  =         0.00000000
  ---------------------------------------------------
  free energy    TOTEN  =       -29.53954241 eV

  energy without entropy =      -29.53764109  energy(sigma->0) =      -29.53859175


--------------------------------------------------------------------------------------------------------




--------------------------------------- Iteration      1(   9)  ---------------------------------------


    POTLOK:  cpu time    0.0166: real time    0.0167
    SETDIJ:  cpu time    0.0059: real time    0.0058
     EDDAV:  cpu time   10.3543: real time   10.3764
       DOS:  cpu time    0.0011: real time    0.0011
    CHARGE:  cpu time    0.0417: real time    0.0417
    MIXING:  cpu time    0.0005: real time    0.0005
    --------------------------------------------
      LOOP:  cpu time   10.4200: real time   10.4423

 eigenvalue-minimisations  : 10624
 total energy-change (2. order) :-0.8690310E+00  (-0.1023137E+00)
 number of electron      39.0000014 magnetization       4.8692723
 augmentation part        0.9039764 magnetization       4.4434060

 Broyden mixing:
  rms(total) = 0.33693E+00    rms(broyden)= 0.33693E+00
  rms(prec ) = 0.33759E+00
  weight for this iteration     100.00

 eigenvalues of (default mixing * dielectric matrix)
  average eigenvalue GAMMA=   1.1177
  2.4522  1.0737  0.3265  0.6185

 Free energy of the ion-electron system (eV)
  ---------------------------------------------------
  alpha Z        PSCENC =        31.36777427
  Ewald energy   TEWEN  =     10736.83356339
  -Hartree energ DENC   =    -12636.20797203
  -exchange      EXHF   =         0.00000000
  -V(xc)+E(xc)   XCENC  =        33.67244013
  PAW double counting   =      3625.29416297    -3618.86271815
  entropy T*S    EENTRO =        -0.00091387
  eigenvalues    EBANDS =      -236.90641061
  atomic energy  EATOM  =      2034.40150045
  Solvation  Ediel_sol  =         0.00000000
  ---------------------------------------------------
  free energy    TOTEN  =       -30.40857345 eV

  energy without entropy =      -30.40765958  energy(sigma->0) =      -30.40811651


--------------------------------------------------------------------------------------------------------




--------------------------------------- Iteration      1(  10)  ---------------------------------------


    POTLOK:  cpu time    0.0169: real time    0.0170
    SETDIJ:  cpu time    0.0055: real time    0.0055
     EDDAV:  cpu time   10.5900: real time   10.6128
       DOS:  cpu time    0.0010: real time    0.0010
    CHARGE:  cpu time    0.0444: real time    0.0445
    MIXING:  cpu time    0.0005: real time    0.0005
    --------------------------------------------
      LOOP:  cpu time   10.6584: real time   10.6814

 eigenvalue-minimisations  : 10752
 total energy-change (2. order) :-0.9886051E+00  (-0.3889935E-01)
 number of electron      39.0000014 magnetization       4.6920298
 augmentation part        0.9864800 magnetization       4.3685637

 Broyden mixing:
  rms(total) = 0.30757E+00    rms(broyden)= 0.30756E+00
  rms(prec ) = 0.30802E+00
  weight for this iteration     100.00

 eigenvalues of (default mixing * dielectric matrix)
  average eigenvalue GAMMA=   0.9611
  2.3613  1.0723  0.6153  0.3256  0.4309

 Free energy of the ion-electron system (eV)
  ---------------------------------------------------
  alpha Z        PSCENC =        31.36777427
  Ewald energy   TEWEN  =     10736.83356339
  -Hartree energ DENC   =    -12636.89166068
  -exchange      EXHF   =         0.00000000
  -V(xc)+E(xc)   XCENC  =        33.24383064
  PAW double counting   =      3702.73687658    -3696.06809682
  entropy T*S    EENTRO =        -0.00125915
  eigenvalues    EBANDS =      -237.01970723
  atomic energy  EATOM  =      2034.40150045
  Solvation  Ediel_sol  =         0.00000000
  ---------------------------------------------------
  free energy    TOTEN  =       -31.39717856 eV

  energy without entropy =      -31.39591940  energy(sigma->0) =      -31.39654898


--------------------------------------------------------------------------------------------------------




--------------------------------------- Iteration      1(  11)  ---------------------------------------


    POTLOK:  cpu time    0.0176: real time    0.0177
    SETDIJ:  cpu time    0.0057: real time    0.0057
     EDDAV:  cpu time    5.6683: real time    5.6805
       DOS:  cpu time    0.0011: real time    0.0011
    CHARGE:  cpu time    0.0420: real time    0.0421
    MIXING:  cpu time    0.0005: real time    0.0006
    --------------------------------------------
      LOOP:  cpu time    5.7353: real time    5.7476

 eigenvalue-minimisations  :  7552
 total energy-change (2. order) :-0.3233196E+00  (-0.7702781E-02)
 number of electron      39.0000014 magnetization       3.4586580
 augmentation part        0.9565796 magnetization       3.1251295

 Broyden mixing:
  rms(total) = 0.27888E+00    rms(broyden)= 0.27888E+00
  rms(prec ) = 0.27902E+00
  weight for this iteration     100.00

 eigenvalues of (default mixing * dielectric matrix)
  average eigenvalue GAMMA=   1.2250
  2.3832  2.3832  0.3261  0.8203  0.8203  0.6171

 Free energy of the ion-electron system (eV)
  ---------------------------------------------------
  alpha Z        PSCENC =        31.36777427
  Ewald energy   TEWEN  =     10736.83356339
  -Hartree energ DENC   =    -12637.37046695
  -exchange      EXHF   =         0.00000000
  -V(xc)+E(xc)   XCENC  =        33.09341855
  PAW double counting   =      3671.18490040    -3664.53674001
  entropy T*S    EENTRO =        -0.00115822
  eigenvalues    EBANDS =      -236.69329006
  atomic energy  EATOM  =      2034.40150045
  Solvation  Ediel_sol  =         0.00000000
  ---------------------------------------------------
  free energy    TOTEN  =       -31.72049819 eV

  energy without entropy =      -31.71933998  energy(sigma->0) =      -31.71991909


--------------------------------------------------------------------------------------------------------




--------------------------------------- Iteration      1(  12)  ---------------------------------------


    POTLOK:  cpu time    0.0169: real time    0.0169
    SETDIJ:  cpu time    0.0055: real time    0.0055
     EDDAV:  cpu time    9.8953: real time    9.9165
       DOS:  cpu time    0.0009: real time    0.0009
    CHARGE:  cpu time    0.0423: real time    0.0424
    MIXING:  cpu time    0.0006: real time    0.0006
    --------------------------------------------
      LOOP:  cpu time    9.9616: real time    9.9829

 eigenvalue-minimisations  : 10368
 total energy-change (2. order) :-0.1879961E+01  (-0.1400303E+00)
 number of electron      39.0000014 magnetization       2.6549173
 augmentation part        0.9712299 magnetization       2.3089356

 Broyden mixing:
  rms(total) = 0.19150E+00    rms(broyden)= 0.19150E+00
  rms(prec ) = 0.19175E+00
  weight for this iteration     100.00

 eigenvalues of (default mixing * dielectric matrix)
  average eigenvalue GAMMA=   1.2912
  2.6595  2.6595  0.3261  0.9990  0.9990  0.7577  0.6378

 Free energy of the ion-electron system (eV)
  ---------------------------------------------------
  alpha Z        PSCENC =        31.36777427
  Ewald energy   TEWEN  =     10736.83356339
  -Hartree energ DENC   =    -12639.81889947
  -exchange      EXHF   =         0.00000000
  -V(xc)+E(xc)   XCENC  =        32.05015753
  PAW double counting   =      3623.08354040    -3616.13508794
  entropy T*S    EENTRO =        -0.00112603
  eigenvalues    EBANDS =      -235.38188174
  atomic energy  EATOM  =      2034.40150045
  Solvation  Ediel_sol  =         0.00000000
  ---------------------------------------------------
  free energy    TOTEN  =       -33.60045914 eV

  energy without entropy =      -33.59933310  energy(sigma->0) =      -33.59989612


--------------------------------------------------------------------------------------------------------




--------------------------------------- Iteration      1(  13)  ---------------------------------------


    POTLOK:  cpu time    0.0166: real time    0.0167
    SETDIJ:  cpu time    0.0054: real time    0.0054
     EDDAV:  cpu time   10.7059: real time   10.7288
       DOS:  cpu time    0.0009: real time    0.0009
    CHARGE:  cpu time    0.0421: real time    0.0421
    MIXING:  cpu time    0.0006: real time    0.0006
    --------------------------------------------
      LOOP:  cpu time   10.7715: real time   10.7945

 eigenvalue-minimisations  : 10880
 total energy-change (2. order) :-0.7790095E+00  (-0.5683251E-01)
 number of electron      39.0000014 magnetization       1.8456318
 augmentation part        0.9517164 magnetization       1.5764436

 Broyden mixing:
  rms(total) = 0.12070E+00    rms(broyden)= 0.12070E+00
  rms(prec ) = 0.12132E+00
  weight for this iteration     100.00

 eigenvalues of (default mixing * dielectric matrix)
  average eigenvalue GAMMA=   1.6896
  6.2700  2.3211  1.3790  0.3261  0.9416  0.9416  0.7232  0.6140

 Free energy of the ion-electron system (eV)
  ---------------------------------------------------
  alpha Z        PSCENC =        31.36777427
  Ewald energy   TEWEN  =     10736.83356339
  -Hartree energ DENC   =    -12640.78041547
  -exchange      EXHF   =         0.00000000
  -V(xc)+E(xc)   XCENC  =        31.65752578
  PAW double counting   =      3583.27870736    -3576.41580561
  entropy T*S    EENTRO =        -0.00119693
  eigenvalues    EBANDS =      -234.72112192
  atomic energy  EATOM  =      2034.40150045
  Solvation  Ediel_sol  =         0.00000000
  ---------------------------------------------------
  free energy    TOTEN  =       -34.37946868 eV

  energy without entropy =      -34.37827175  energy(sigma->0) =      -34.37887022


--------------------------------------------------------------------------------------------------------




--------------------------------------- Iteration      1(  14)  ---------------------------------------


    POTLOK:  cpu time    0.0169: real time    0.0170
    SETDIJ:  cpu time    0.0056: real time    0.0056
     EDDAV:  cpu time   10.0996: real time   10.1211
       DOS:  cpu time    0.0014: real time    0.0014
    CHARGE:  cpu time    0.0418: real time    0.0419
    MIXING:  cpu time    0.0006: real time    0.0006
    --------------------------------------------
      LOOP:  cpu time   10.1660: real time   10.1876

 eigenvalue-minimisations  : 10496
 total energy-change (2. order) :-0.5771877E+00  (-0.4294325E-01)
 number of electron      39.0000014 magnetization       1.5743800
 augmentation part        0.9855974 magnetization       1.3091443

 Broyden mixing:
  rms(total) = 0.80512E-01    rms(broyden)= 0.80512E-01
  rms(prec ) = 0.81880E-01
  weight for this iteration     100.00

 eigenvalues of (default mixing * dielectric matrix)
  average eigenvalue GAMMA=   1.9519
  9.2159  2.2057  1.7807  0.3261  0.9969  0.9969  0.6072  0.7190  0.7190

 Free energy of the ion-electron system (eV)
  ---------------------------------------------------
  alpha Z        PSCENC =        31.36777427
  Ewald energy   TEWEN  =     10736.83356339
  -Hartree energ DENC   =    -12640.14056219
  -exchange      EXHF   =         0.00000000
  -V(xc)+E(xc)   XCENC  =        31.30267771
  PAW double counting   =      3568.31869654    -3561.38561147
  entropy T*S    EENTRO =        -0.00120460
  eigenvalues    EBANDS =      -235.65349046
  atomic energy  EATOM  =      2034.40150045
  Solvation  Ediel_sol  =         0.00000000
  ---------------------------------------------------
  free energy    TOTEN  =       -34.95665637 eV

  energy without entropy =      -34.95545176  energy(sigma->0) =      -34.95605406


--------------------------------------------------------------------------------------------------------




--------------------------------------- Iteration      1(  15)  ---------------------------------------


    POTLOK:  cpu time    0.0179: real time    0.0180
    SETDIJ:  cpu time    0.0055: real time    0.0055
     EDDAV:  cpu time    9.6881: real time    9.7087
       DOS:  cpu time    0.0014: real time    0.0014
    CHARGE:  cpu time    0.0422: real time    0.0423
    MIXING:  cpu time    0.0006: real time    0.0006
    --------------------------------------------
      LOOP:  cpu time    9.7557: real time    9.7765

 eigenvalue-minimisations  : 10240
 total energy-change (2. order) :-0.2635390E+00  (-0.1128238E-01)
 number of electron      39.0000014 magnetization       1.4176438
 augmentation part        0.9611049 magnetization       1.1526571

 Broyden mixing:
  rms(total) = 0.58381E-01    rms(broyden)= 0.58381E-01
  rms(prec ) = 0.59973E-01
  weight for this iteration     100.00

 eigenvalues of (default mixing * dielectric matrix)
  average eigenvalue GAMMA=   2.0302
 10.2701  2.2668  2.2668  1.3194  0.3261  0.9331  0.9331  0.7619  0.6278  0.5972

 Free energy of the ion-electron system (eV)
  ---------------------------------------------------
  alpha Z        PSCENC =        31.36777427
  Ewald energy   TEWEN  =     10736.83356339
  -Hartree energ DENC   =    -12638.34728133
  -exchange      EXHF   =         0.00000000
  -V(xc)+E(xc)   XCENC  =        31.09945484
  PAW double counting   =      3564.00103511    -3557.17403642
  entropy T*S    EENTRO =        -0.00120422
  eigenvalues    EBANDS =      -237.40100150
  atomic energy  EATOM  =      2034.40150045
  Solvation  Ediel_sol  =         0.00000000
  ---------------------------------------------------
  free energy    TOTEN  =       -35.22019541 eV

  energy without entropy =      -35.21899119  energy(sigma->0) =      -35.21959330


--------------------------------------------------------------------------------------------------------




--------------------------------------- Iteration      1(  16)  ---------------------------------------


    POTLOK:  cpu time    0.0168: real time    0.0168
    SETDIJ:  cpu time    0.0054: real time    0.0054
     EDDAV:  cpu time   10.4221: real time   10.4447
       DOS:  cpu time    0.0013: real time    0.0013
    CHARGE:  cpu time    0.0438: real time    0.0439
    MIXING:  cpu time    0.0011: real time    0.0011
    --------------------------------------------
      LOOP:  cpu time   10.4906: real time   10.5133

 eigenvalue-minimisations  : 10624
 total energy-change (2. order) :-0.2485128E+00  (-0.8520659E-02)
 number of electron      39.0000014 magnetization       1.3399796
 augmentation part        0.9691839 magnetization       1.0664412

 Broyden mixing:
  rms(total) = 0.36012E-01    rms(broyden)= 0.36012E-01
  rms(prec ) = 0.36877E-01
  weight for this iteration     100.00

 eigenvalues of (default mixing * dielectric matrix)
  average eigenvalue GAMMA=   2.0872
 11.0195  2.7244  2.7244  1.4487  0.3261  0.9781  0.9781  0.8594  0.6890  0.6276
  0.5839

 Free energy of the ion-electron system (eV)
  ---------------------------------------------------
  alpha Z        PSCENC =        31.36777427
  Ewald energy   TEWEN  =     10736.83356339
  -Hartree energ DENC   =    -12633.46833710
  -exchange      EXHF   =         0.00000000
  -V(xc)+E(xc)   XCENC  =        30.84477798
  PAW double counting   =      3572.03109912    -3565.24657582
  entropy T*S    EENTRO =        -0.00120456
  eigenvalues    EBANDS =      -242.23130597
  atomic energy  EATOM  =      2034.40150045
  Solvation  Ediel_sol  =         0.00000000
  ---------------------------------------------------
  free energy    TOTEN  =       -35.46870824 eV

  energy without entropy =      -35.46750368  energy(sigma->0) =      -35.46810596


--------------------------------------------------------------------------------------------------------




--------------------------------------- Iteration      1(  17)  ---------------------------------------


    POTLOK:  cpu time    0.0174: real time    0.0175
    SETDIJ:  cpu time    0.0055: real time    0.0055
     EDDAV:  cpu time    9.1382: real time    9.1577
       DOS:  cpu time    0.0009: real time    0.0009
    CHARGE:  cpu time    0.0435: real time    0.0436
    MIXING:  cpu time    0.0008: real time    0.0008
    --------------------------------------------
      LOOP:  cpu time    9.2063: real time    9.2260

 eigenvalue-minimisations  :  9984
 total energy-change (2. order) :-0.5686024E-01  (-0.2334711E-02)
 number of electron      39.0000014 magnetization       1.2510477
 augmentation part        0.9629990 magnetization       0.9808559

 Broyden mixing:
  rms(total) = 0.27761E-01    rms(broyden)= 0.27761E-01
  rms(prec ) = 0.28204E-01
  weight for this iteration     100.00

 eigenvalues of (default mixing * dielectric matrix)
  average eigenvalue GAMMA=   2.1010
 11.3571  3.7108  2.3296  1.7521  0.3261  0.9684  0.9684  0.9638  0.9638  0.6427
  0.6427  0.5865

 Free energy of the ion-electron system (eV)
  ---------------------------------------------------
  alpha Z        PSCENC =        31.36777427
  Ewald energy   TEWEN  =     10736.83356339
  -Hartree energ DENC   =    -12629.64658687
  -exchange      EXHF   =         0.00000000
  -V(xc)+E(xc)   XCENC  =        30.76823505
  PAW double counting   =      3566.66644142    -3559.91774358
  entropy T*S    EENTRO =        -0.00120469
  eigenvalues    EBANDS =      -245.99754792
  atomic energy  EATOM  =      2034.40150045
  Solvation  Ediel_sol  =         0.00000000
  ---------------------------------------------------
  free energy    TOTEN  =       -35.52556848 eV

  energy without entropy =      -35.52436380  energy(sigma->0) =      -35.52496614


--------------------------------------------------------------------------------------------------------




--------------------------------------- Iteration      1(  18)  ---------------------------------------


    POTLOK:  cpu time    0.0168: real time    0.0169
    SETDIJ:  cpu time    0.0056: real time    0.0056
     EDDAV:  cpu time    7.4056: real time    7.4215
       DOS:  cpu time    0.0009: real time    0.0009
    CHARGE:  cpu time    0.0427: real time    0.0428
    MIXING:  cpu time    0.0013: real time    0.0013
    --------------------------------------------
      LOOP:  cpu time    7.4729: real time    7.4890

 eigenvalue-minimisations  :  9088
 total energy-change (2. order) :-0.3444799E-01  (-0.1108759E-02)
 number of electron      39.0000014 magnetization       1.1693590
 augmentation part        0.9723985 magnetization       0.8993136

 Broyden mixing:
  rms(total) = 0.22258E-01    rms(broyden)= 0.22258E-01
  rms(prec ) = 0.22653E-01
  weight for this iteration     100.00

 eigenvalues of (default mixing * dielectric matrix)
  average eigenvalue GAMMA=   2.0855
 11.5135  3.8296  2.2955  2.2955  1.4198  0.3261  0.9620  0.9620  0.9372  0.6892
  0.6892  0.6216  0.5704

 Free energy of the ion-electron system (eV)
  ---------------------------------------------------
  alpha Z        PSCENC =        31.36777427
  Ewald energy   TEWEN  =     10736.83356339
  -Hartree energ DENC   =    -12626.72550301
  -exchange      EXHF   =         0.00000000
  -V(xc)+E(xc)   XCENC  =        30.70243391
  PAW double counting   =      3563.31216228    -3556.51825505
  entropy T*S    EENTRO =        -0.00120467
  eigenvalues    EBANDS =      -248.93248805
  atomic energy  EATOM  =      2034.40150045
  Solvation  Ediel_sol  =         0.00000000
  ---------------------------------------------------
  free energy    TOTEN  =       -35.56001647 eV

  energy without entropy =      -35.55881180  energy(sigma->0) =      -35.55941413


--------------------------------------------------------------------------------------------------------




--------------------------------------- Iteration      1(  19)  ---------------------------------------


    POTLOK:  cpu time    0.0170: real time    0.0171
    SETDIJ:  cpu time    0.0054: real time    0.0055
     EDDAV:  cpu time   10.8538: real time   10.8770
       DOS:  cpu time    0.0011: real time    0.0011
    CHARGE:  cpu time    0.0439: real time    0.0440
    MIXING:  cpu time    0.0008: real time    0.0008
    --------------------------------------------
      LOOP:  cpu time   10.9221: real time   10.9454

 eigenvalue-minimisations  : 10880
 total energy-change (2. order) :-0.2968378E-01  (-0.3991399E-03)
 number of electron      39.0000014 magnetization       1.0882141
 augmentation part        0.9660779 magnetization       0.8194519

 Broyden mixing:
  rms(total) = 0.14689E-01    rms(broyden)= 0.14689E-01
  rms(prec ) = 0.14831E-01
  weight for this iteration     100.00

 eigenvalues of (default mixing * dielectric matrix)
  average eigenvalue GAMMA=   2.1817
 11.7015  5.4045  2.5203  2.5203  1.6176  1.1086  0.9850  0.9850  0.3261  0.8147
  0.7429  0.6249  0.6249  0.5672

 Free energy of the ion-electron system (eV)
  ---------------------------------------------------
  alpha Z        PSCENC =        31.36777427
  Ewald energy   TEWEN  =     10736.83356339
  -Hartree energ DENC   =    -12625.21609976
  -exchange      EXHF   =         0.00000000
  -V(xc)+E(xc)   XCENC  =        30.66790414
  PAW double counting   =      3557.56371164    -3550.76736113
  entropy T*S    EENTRO =        -0.00120480
  eigenvalues    EBANDS =      -250.43948844
  atomic energy  EATOM  =      2034.40150045
  Solvation  Ediel_sol  =         0.00000000
  ---------------------------------------------------
  free energy    TOTEN  =       -35.58970025 eV

  energy without entropy =      -35.58849545  energy(sigma->0) =      -35.58909785


--------------------------------------------------------------------------------------------------------




--------------------------------------- Iteration      1(  20)  ---------------------------------------


    POTLOK:  cpu time    0.0181: real time    0.0181
    SETDIJ:  cpu time    0.0056: real time    0.0056
     EDDAV:  cpu time    8.0407: real time    8.0580
       DOS:  cpu time    0.0009: real time    0.0009
    CHARGE:  cpu time    0.0427: real time    0.0428
    MIXING:  cpu time    0.0010: real time    0.0010
    --------------------------------------------
      LOOP:  cpu time    8.1088: real time    8.1263

 eigenvalue-minimisations  :  9344
 total energy-change (2. order) :-0.1953704E-01  (-0.3413554E-03)
 number of electron      39.0000014 magnetization       1.0302080
 augmentation part        0.9652367 magnetization       0.7597303

 Broyden mixing:
  rms(total) = 0.87895E-02    rms(broyden)= 0.87895E-02
  rms(prec ) = 0.90026E-02
  weight for this iteration     100.00

 eigenvalues of (default mixing * dielectric matrix)
  average eigenvalue GAMMA=   2.2687
 12.1854  6.7687  3.0598  2.3951  1.5030  1.5030  0.3261  0.9636  0.9636  1.0414
  0.7999  0.7074  0.6374  0.6128  0.5629

 Free energy of the ion-electron system (eV)
  ---------------------------------------------------
  alpha Z        PSCENC =        31.36777427
  Ewald energy   TEWEN  =     10736.83356339
  -Hartree energ DENC   =    -12623.46912987
  -exchange      EXHF   =         0.00000000
  -V(xc)+E(xc)   XCENC  =        30.63953447
  PAW double counting   =      3559.00295432    -3552.21214498
  entropy T*S    EENTRO =        -0.00120481
  eigenvalues    EBANDS =      -252.17208454
  atomic energy  EATOM  =      2034.40150045
  Solvation  Ediel_sol  =         0.00000000
  ---------------------------------------------------
  free energy    TOTEN  =       -35.60923729 eV

  energy without entropy =      -35.60803248  energy(sigma->0) =      -35.60863489


--------------------------------------------------------------------------------------------------------




--------------------------------------- Iteration      1(  21)  ---------------------------------------


    POTLOK:  cpu time    0.0176: real time    0.0176
    SETDIJ:  cpu time    0.0059: real time    0.0060
     EDDAV:  cpu time    8.6303: real time    8.6488
       DOS:  cpu time    0.0009: real time    0.0009
    CHARGE:  cpu time    0.0439: real time    0.0440
    MIXING:  cpu time    0.0010: real time    0.0010
    --------------------------------------------
      LOOP:  cpu time    8.6996: real time    8.7182

 eigenvalue-minimisations  :  9472
 total energy-change (2. order) :-0.1267452E-01  (-0.5196091E-04)
 number of electron      39.0000014 magnetization       1.0156696
 augmentation part        0.9655693 magnetization       0.7441475

 Broyden mixing:
  rms(total) = 0.62350E-02    rms(broyden)= 0.62350E-02
  rms(prec ) = 0.64087E-02
  weight for this iteration     100.00

 eigenvalues of (default mixing * dielectric matrix)
  average eigenvalue GAMMA=   2.3829
 12.6918  8.4445  3.4000  2.2262  2.2262  1.6137  0.3261  1.1147  0.9814  0.9814
  0.8688  0.7589  0.6562  0.6562  0.6126  0.5672

 Free energy of the ion-electron system (eV)
  ---------------------------------------------------
  alpha Z        PSCENC =        31.36777427
  Ewald energy   TEWEN  =     10736.83356339
  -Hartree energ DENC   =    -12622.98895493
  -exchange      EXHF   =         0.00000000
  -V(xc)+E(xc)   XCENC  =        30.62995277
  PAW double counting   =      3561.26962237    -3554.47703019
  entropy T*S    EENTRO =        -0.00120481
  eigenvalues    EBANDS =      -252.65713514
  atomic energy  EATOM  =      2034.40150045
  Solvation  Ediel_sol  =         0.00000000
  ---------------------------------------------------
  free energy    TOTEN  =       -35.62191182 eV

  energy without entropy =      -35.62070701  energy(sigma->0) =      -35.62130941


--------------------------------------------------------------------------------------------------------




--------------------------------------- Iteration      1(  22)  ---------------------------------------


    POTLOK:  cpu time    0.0166: real time    0.0166
    SETDIJ:  cpu time    0.0057: real time    0.0057
     EDDAV:  cpu time   10.1071: real time   10.1288
       DOS:  cpu time    0.0013: real time    0.0013
    CHARGE:  cpu time    0.0423: real time    0.0423
    MIXING:  cpu time    0.0010: real time    0.0010
    --------------------------------------------
      LOOP:  cpu time   10.1739: real time   10.1957

 eigenvalue-minimisations  : 10368
 total energy-change (2. order) :-0.2038590E-01  (-0.1725199E-04)
 number of electron      39.0000014 magnetization       1.0074246
 augmentation part        0.9644732 magnetization       0.7373941

 Broyden mixing:
  rms(total) = 0.30546E-02    rms(broyden)= 0.30546E-02
  rms(prec ) = 0.32799E-02
  weight for this iteration     100.00

 eigenvalues of (default mixing * dielectric matrix)
  average eigenvalue GAMMA=   2.3958
 13.1543  9.1249  3.4324  2.4126  2.4126  1.6468  0.3261  0.9787  0.9787  1.1367
  1.0355  0.9189  0.6828  0.6828  0.5725  0.6165  0.6165

 Free energy of the ion-electron system (eV)
  ---------------------------------------------------
  alpha Z        PSCENC =        31.36777427
  Ewald energy   TEWEN  =     10736.83356339
  -Hartree energ DENC   =    -12622.89701953
  -exchange      EXHF   =         0.00000000
  -V(xc)+E(xc)   XCENC  =        30.61599730
  PAW double counting   =      3562.63784229    -3555.85349602
  entropy T*S    EENTRO =        -0.00120480
  eigenvalues    EBANDS =      -252.74725506
  atomic energy  EATOM  =      2034.40150045
  Solvation  Ediel_sol  =         0.00000000
  ---------------------------------------------------
  free energy    TOTEN  =       -35.64229772 eV

  energy without entropy =      -35.64109291  energy(sigma->0) =      -35.64169532


--------------------------------------------------------------------------------------------------------




--------------------------------------- Iteration      1(  23)  ---------------------------------------


    POTLOK:  cpu time    0.0168: real time    0.0168
    SETDIJ:  cpu time    0.0054: real time    0.0054
     EDDAV:  cpu time    8.3327: real time    8.3505
       DOS:  cpu time    0.0008: real time    0.0008
    CHARGE:  cpu time    0.0435: real time    0.0435
    MIXING:  cpu time    0.0014: real time    0.0014
    --------------------------------------------
      LOOP:  cpu time    8.4006: real time    8.4185

 eigenvalue-minimisations  :  9472
 total energy-change (2. order) :-0.1165815E-01  (-0.3463071E-05)
 number of electron      39.0000014 magnetization       1.0029356
 augmentation part        0.9652625 magnetization       0.7330066

 Broyden mixing:
  rms(total) = 0.16169E-02    rms(broyden)= 0.16169E-02
  rms(prec ) = 0.18142E-02
  weight for this iteration     100.00

 eigenvalues of (default mixing * dielectric matrix)
  average eigenvalue GAMMA=   2.4327
 13.5471  9.7018  3.5611  3.0196  2.1214  1.8123  1.8123  0.3261  0.9843  0.9843
  1.0063  0.8972  0.8141  0.7078  0.6886  0.5691  0.6240  0.6107

 Free energy of the ion-electron system (eV)
  ---------------------------------------------------
  alpha Z        PSCENC =        31.36777427
  Ewald energy   TEWEN  =     10736.83356339
  -Hartree energ DENC   =    -12622.92258084
  -exchange      EXHF   =         0.00000000
  -V(xc)+E(xc)   XCENC  =        30.60453584
  PAW double counting   =      3561.89736135    -3555.10925861
  entropy T*S    EENTRO =        -0.00120481
  eigenvalues    EBANDS =      -252.72564692
  atomic energy  EATOM  =      2034.40150045
  Solvation  Ediel_sol  =         0.00000000
  ---------------------------------------------------
  free energy    TOTEN  =       -35.65395587 eV

  energy without entropy =      -35.65275106  energy(sigma->0) =      -35.65335347


--------------------------------------------------------------------------------------------------------




--------------------------------------- Iteration      1(  24)  ---------------------------------------


    POTLOK:  cpu time    0.0170: real time    0.0171
    SETDIJ:  cpu time    0.0055: real time    0.0055
     EDDAV:  cpu time    9.1539: real time    9.1736
       DOS:  cpu time    0.0011: real time    0.0011
    CHARGE:  cpu time    0.0436: real time    0.0437
    MIXING:  cpu time    0.0009: real time    0.0009
    --------------------------------------------
      LOOP:  cpu time    9.2220: real time    9.2418

 eigenvalue-minimisations  :  9856
 total energy-change (2. order) :-0.3597627E-02  (-0.2636385E-05)
 number of electron      39.0000014 magnetization       1.0009203
 augmentation part        0.9655820 magnetization       0.7310625

 Broyden mixing:
  rms(total) = 0.87091E-03    rms(broyden)= 0.87089E-03
  rms(prec ) = 0.99284E-03
  weight for this iteration     100.00

 eigenvalues of (default mixing * dielectric matrix)
  average eigenvalue GAMMA=   2.4084
 13.7620  9.8629  3.9239  2.9954  2.0803  2.0803  1.8576  0.3261  1.0629  1.0629
  0.9773  0.9773  0.8892  0.7575  0.5712  0.6814  0.6645  0.6136  0.6136

 Free energy of the ion-electron system (eV)
  ---------------------------------------------------
  alpha Z        PSCENC =        31.36777427
  Ewald energy   TEWEN  =     10736.83356339
  -Hartree energ DENC   =    -12623.07429547
  -exchange      EXHF   =         0.00000000
  -V(xc)+E(xc)   XCENC  =        30.60204136
  PAW double counting   =      3561.98097721    -3555.19078589
  entropy T*S    EENTRO =        -0.00120481
  eigenvalues    EBANDS =      -252.57712401
  atomic energy  EATOM  =      2034.40150045
  Solvation  Ediel_sol  =         0.00000000
  ---------------------------------------------------
  free energy    TOTEN  =       -35.65755350 eV

  energy without entropy =      -35.65634869  energy(sigma->0) =      -35.65695110


--------------------------------------------------------------------------------------------------------




--------------------------------------- Iteration      1(  25)  ---------------------------------------


    POTLOK:  cpu time    0.0172: real time    0.0173
    SETDIJ:  cpu time    0.0056: real time    0.0057
     EDDAV:  cpu time    8.2385: real time    8.2562
       DOS:  cpu time    0.0010: real time    0.0010
    CHARGE:  cpu time    0.0421: real time    0.0422
    MIXING:  cpu time    0.0014: real time    0.0014
    --------------------------------------------
      LOOP:  cpu time    8.3059: real time    8.3236

 eigenvalue-minimisations  :  9472
 total energy-change (2. order) :-0.3240070E-03  (-0.4730311E-06)
 number of electron      39.0000014 magnetization       1.0004446
 augmentation part        0.9656899 magnetization       0.7303312

 Broyden mixing:
  rms(total) = 0.38061E-03    rms(broyden)= 0.38058E-03
  rms(prec ) = 0.49414E-03
  weight for this iteration     100.00

 eigenvalues of (default mixing * dielectric matrix)
  average eigenvalue GAMMA=   2.3689
 13.8157  9.9039  3.9816  3.2405  2.1114  2.1114  1.8932  1.3495  0.3261  1.0948
  0.9772  0.9772  0.8991  0.8424  0.7123  0.7123  0.5712  0.6169  0.6209  0.6209

 Free energy of the ion-electron system (eV)
  ---------------------------------------------------
  alpha Z        PSCENC =        31.36777427
  Ewald energy   TEWEN  =     10736.83356339
  -Hartree energ DENC   =    -12623.17210635
  -exchange      EXHF   =         0.00000000
[...]
     95      21.1865      0.00000
     96      21.4127      0.00000
     97      21.5927      0.00000
     98      21.6208      0.00000
     99      21.8416      0.00000
    100      22.1013      0.00000
    101      22.2317      0.00000
    102      22.5561      0.00000
    103      22.6210      0.00000
    104      22.8055      0.00000
    105      22.9868      0.00000
    106      23.1958      0.00000
    107      23.3203      0.00000
    108      23.5268      0.00000
    109      23.6001      0.00000
    110      23.9952      0.00000
    111      24.1072      0.00000
    112      24.2410      0.00000
    113      24.5019      0.00000
    114      24.6685      0.00000
    115      24.8379      0.00000
    116      24.9832      0.00000
    117      25.1630      0.00000
    118      25.2894      0.00000
    119      25.4176      0.00000
    120      25.6844      0.00000
    121      25.7494      0.00000
    122      25.9294      0.00000
    123      26.2036      0.00000
    124      26.3145      0.00000
    125      26.5712      0.00000
    126      26.6106      0.00000
    127      26.7625      0.00000
    128      27.0187      0.00000

 k-point    12 :       0.3333    0.3333    0.0000
  band No.  band energies     occupation 
      1     -13.9819      1.00000
      2     -13.9819      1.00000
      3     -13.8992      1.00000
      4     -13.8991      1.00000
      5      -8.5304      1.00000
      6      -8.5304      1.00000
      7      -6.8322      1.00000
      8      -6.4573      1.00000
      9      -6.2892      1.00000
     10      -6.2892      1.00000
     11      -6.0644      1.00000
     12      -4.5571      1.00000
     13      -4.5570      1.00000
     14      -3.8476      1.00000
     15      -3.8476      1.00000
     16      -3.8271      1.00000
     17      -1.5150      1.00000
     18      -1.1802      1.00000
     19      -1.1802      1.00000
     20       0.3713      0.00000
     21       0.3714      0.00000
     22       1.8270      0.00000
     23       1.8953      0.00000
     24       1.8953      0.00000
     25       2.3444      0.00000
     26       4.8107      0.00000
     27       4.8107      0.00000
     28       5.9285      0.00000
     29       5.9285      0.00000
     30       6.6097      0.00000
     31       6.6740      0.00000
     32       6.7802      0.00000
     33       7.4909      0.00000
     34       7.4909      0.00000
     35       7.9476      0.00000
     36       8.4968      0.00000
     37       8.4968      0.00000
     38       8.5875      0.00000
     39       8.7411      0.00000
     40       8.7411      0.00000
     41       9.0603      0.00000
     42       9.1163      0.00000
     43       9.3157      0.00000
     44       9.3161      0.00000
     45       9.5857      0.00000
     46       9.5857      0.00000
     47       9.6966      0.00000
     48       9.8894      0.00000
     49      10.2730      0.00000
     50      10.2731      0.00000
     51      10.4881      0.00000
     52      10.4884      0.00000
     53      11.0202      0.00000
     54      11.1097      0.00000
     55      11.5038      0.00000
     56      11.5040      0.00000
     57      11.8025      0.00000
     58      11.8029      0.00000
     59      12.3648      0.00000
     60      12.3650      0.00000
     61      12.6663      0.00000
     62      12.9616      0.00000
     63      13.5438      0.00000
     64      13.5440      0.00000
     65      13.9432      0.00000
     66      13.9433      0.00000
     67      14.4384      0.00000
     68      14.6971      0.00000
     69      15.5046      0.00000
     70      15.6217      0.00000
     71      15.6220      0.00000
     72      15.8972      0.00000
     73      16.4183      0.00000
     74      16.4186      0.00000
     75      16.9588      0.00000
     76      17.3690      0.00000
     77      17.3690      0.00000
     78      17.7377      0.00000
     79      17.7377      0.00000
     80      17.9263      0.00000
     81      18.1285      0.00000
     82      18.1286      0.00000
     83      18.1309      0.00000
     84      18.7472      0.00000
     85      18.7473      0.00000
     86      18.8998      0.00000
     87      18.9000      0.00000
     88      18.9605      0.00000
     89      19.4347      0.00000
     90      19.5960      0.00000
     91      20.4713      0.00000
     92      20.4714      0.00000
     93      20.7328      0.00000
     94      20.8690      0.00000
     95      21.6058      0.00000
     96      21.6059      0.00000
     97      21.7390      0.00000
     98      21.8209      0.00000
     99      21.8210      0.00000
    100      22.3964      0.00000
    101      22.6348      0.00000
    102      22.6348      0.00000
    103      23.3835      0.00000
    104      23.3836      0.00000
    105      24.0080      0.00000
    106      24.0903      0.00000
    107      24.0904      0.00000
    108      24.2644      0.00000
    109      24.8010      0.00000
    110      24.8011      0.00000
    111      24.8191      0.00000
    112      24.9639      0.00000
    113      24.9859      0.00000
    114      24.9861      0.00000
    115      25.0190      0.00000
    116      25.0194      0.00000
    117      25.3429      0.00000
    118      25.6180      0.00000
    119      25.6183      0.00000
    120      25.6519      0.00000
    121      25.6519      0.00000
    122      25.7011      0.00000
    123      25.9575      0.00000
    124      25.9925      0.00000
    125      26.3298      0.00000
    126      26.3299      0.00000
    127      26.7544      0.00000
    128      26.9630      0.00000


--------------------------------------------------------------------------------------------------------


 soft charge-density along one line, spin component           1
         0         1         2         3         4         5         6         7         8         9
 total charge-density along one line
 
 soft charge-density along one line, spin component           2
         0         1         2         3         4         5         6         7         8         9
 total charge-density along one line
 
 pseudopotential strength for first ion, spin component:           1
  6.888   8.325   0.000   0.015  -0.000   0.000   0.028  -0.000
  8.325  10.059   0.000   0.019  -0.000   0.000   0.035  -0.000
  0.000   0.000   1.425   0.000   0.000   2.407   0.000   0.000
  0.015   0.019   0.000   1.427  -0.000   0.000   2.411  -0.000
 -0.000  -0.000   0.000  -0.000   1.425   0.000  -0.000   2.407
  0.000   0.000   2.407   0.000   0.000   4.088   0.000   0.000
  0.028   0.035   0.000   2.411  -0.000   0.000   4.094  -0.000
 -0.000  -0.000   0.000  -0.000   2.407   0.000  -0.000   4.088
  0.000   0.000  -0.000   0.000  -0.004  -0.000   0.000  -0.006
  0.000   0.000   0.009   0.000   0.000   0.016   0.000   0.000
  0.003   0.003  -0.000  -0.004   0.000  -0.000  -0.006   0.000
 -0.000  -0.000   0.000  -0.000   0.009   0.000  -0.000   0.016
 -0.000  -0.000  -0.004  -0.000  -0.000  -0.006  -0.000  -0.000
 pseudopotential strength for first ion, spin component:           2
  6.883   8.319   0.000   0.017  -0.000   0.000   0.032  -0.000
  8.319  10.051   0.000   0.021  -0.000   0.000   0.040  -0.000
  0.000   0.000   1.424   0.000   0.000   2.405   0.000   0.000
  0.017   0.021   0.000   1.426  -0.000   0.000   2.408  -0.000
 -0.000  -0.000   0.000  -0.000   1.424   0.000  -0.000   2.405
  0.000   0.000   2.405   0.000   0.000   4.085   0.000   0.000
  0.032   0.040   0.000   2.408  -0.000   0.000   4.090  -0.000
 -0.000  -0.000   0.000  -0.000   2.405   0.000  -0.000   4.085
  0.000   0.000  -0.000   0.000  -0.004  -0.000   0.000  -0.006
  0.000   0.000   0.010   0.000   0.000   0.018   0.000   0.000
  0.003   0.003  -0.000  -0.004   0.000  -0.000  -0.005   0.000
 -0.000  -0.000   0.000  -0.000   0.010   0.000  -0.000   0.018
 -0.000  -0.000  -0.004  -0.000  -0.000  -0.006  -0.000  -0.000
 total augmentation occupancy for first ion, spin component:           1
  5.789  -2.698   0.000   0.219   0.000   0.000  -0.047  -0.000   0.000  -0.000   0.096   0.000   0.000
 -2.698   1.482   0.000  -0.258   0.000  -0.000   0.044   0.000  -0.000   0.000  -0.040  -0.000  -0.000
 -0.000   0.000   2.577   0.000  -0.000  -0.629   0.000   0.000  -0.000   0.245  -0.000  -0.000  -0.234
  0.219  -0.258   0.000   3.268   0.000   0.000  -0.818  -0.000  -0.000   0.000  -0.335  -0.000  -0.000
  0.000  -0.000  -0.000   0.000   2.577   0.000  -0.000  -0.629  -0.234  -0.000  -0.000   0.245   0.000
 -0.000   0.000  -0.629   0.000   0.000   0.163   0.000  -0.000   0.000  -0.062   0.000   0.000   0.056
 -0.047   0.044   0.000  -0.818  -0.000  -0.000   0.220  -0.000   0.000   0.000   0.082  -0.000   0.000
 -0.000   0.000   0.000  -0.000  -0.629  -0.000  -0.000   0.163   0.056   0.000   0.000  -0.062  -0.000
  0.000  -0.000  -0.000  -0.000  -0.234   0.000   0.000   0.056   0.052  -0.000   0.000  -0.031   0.000
  0.000  -0.000   0.245   0.000  -0.000  -0.062   0.000   0.000  -0.000   0.064  -0.000  -0.000  -0.031
  0.096  -0.040  -0.000  -0.335  -0.000   0.000   0.082   0.000   0.000  -0.000   0.080  -0.000   0.000
  0.000  -0.000  -0.000  -0.000   0.245   0.000  -0.000  -0.062  -0.031  -0.000  -0.000   0.064   0.000
  0.000  -0.000  -0.234  -0.000   0.000   0.056   0.000  -0.000   0.000  -0.031   0.000   0.000   0.052
 total augmentation occupancy for first ion, spin component:           2
  0.021  -0.027   0.000   0.009   0.000   0.000   0.000   0.000   0.000   0.000   0.002   0.000   0.000
 -0.027   0.042  -0.000  -0.023  -0.000   0.000   0.001   0.000  -0.000   0.000  -0.004   0.000  -0.000
  0.000   0.000   0.006   0.000  -0.000  -0.001   0.000   0.000   0.000  -0.003   0.000   0.000   0.000
  0.009  -0.023   0.000   0.018  -0.000   0.000  -0.001   0.000   0.000   0.000   0.003   0.000   0.000
 -0.000   0.000  -0.000  -0.000   0.006   0.000   0.000  -0.001   0.000   0.000   0.000  -0.003  -0.000
  0.000  -0.000  -0.001   0.000   0.000   0.000  -0.000  -0.000   0.000   0.000  -0.000  -0.000  -0.000
  0.000   0.001   0.000  -0.001   0.000  -0.000   0.000   0.000  -0.000  -0.000  -0.000  -0.000  -0.000
  0.000   0.000   0.000   0.000  -0.001  -0.000   0.000   0.000  -0.000  -0.000  -0.000   0.000   0.000
  0.000  -0.000   0.000   0.000   0.000  -0.000  -0.000  -0.000   0.000  -0.000   0.000  -0.000  -0.000
  0.000   0.000  -0.003   0.000   0.000   0.000   0.000  -0.000  -0.000   0.001  -0.000  -0.000  -0.000
  0.002  -0.004   0.000   0.003  -0.000  -0.000  -0.000  -0.000   0.000  -0.000   0.000  -0.000   0.000
 -0.000   0.000   0.000   0.000  -0.003  -0.000  -0.000   0.000  -0.000  -0.000   0.000   0.001   0.000
  0.000  -0.000   0.000   0.000  -0.000  -0.000  -0.000   0.000  -0.000  -0.000   0.000   0.000   0.000


------------------------ aborting loop because EDIFF is reached ----------------------------------------


 


 total charge     
 
# of ion       s       p       d       tot
------------------------------------------
    1        1.070   1.201   0.218   2.488
    2        1.070   1.201   0.218   2.488
    3        0.393   0.508   7.407   8.308
    4        1.343   2.315   0.000   3.658
    5        1.343   2.315   0.000   3.658
    6        1.344   2.367   0.000   3.710
    7        1.344   2.367   0.000   3.710
--------------------------------------------------
tot          7.905  12.272   7.842  28.019
 


 magnetization (x)
 
# of ion       s       p       d       tot
------------------------------------------
    1        0.011   0.009   0.002   0.022
    2        0.011   0.009   0.002   0.022
    3        0.001   0.003   0.823   0.826
    4        0.022  -0.008   0.000   0.015
    5        0.022  -0.008   0.000   0.015
    6        0.001   0.013   0.000   0.013
    7        0.001   0.013   0.000   0.013
--------------------------------------------------
tot          0.069   0.031   0.827   0.927
 
    CHARGE:  cpu time    0.0423: real time    0.0424
    FORLOC:  cpu time    0.0003: real time    0.0003
    FORNL :  cpu time    0.0463: real time    0.0464
    STRESS:  cpu time    0.6678: real time    0.6692
    FORCOR:  cpu time    0.0125: real time    0.0125
    FORHAR:  cpu time    0.0014: real time    0.0014
    MIXING:  cpu time    0.0005: real time    0.0005
    OFIELD:  cpu time    0.0000: real time    0.0000

  FORCE on cell =-STRESS in cart. coord.  units (eV):
  Direction    XX          YY          ZZ          XY          YZ          ZX
  --------------------------------------------------------------------------------------
  Alpha Z    32.81390    32.81390    32.81390
  Ewald   12800.27761 12800.27733-14075.88002    -0.00013    -0.00023     0.00019
  Hartree 13207.81869 13207.81872-13001.57866     0.00003    -0.00001    -0.00002
  E(xc)    -151.45275  -151.45276  -152.36030    -0.00001    -0.00000     0.00001
  Local  -26713.21676-26713.21689 26372.05196    -0.00004     0.00018    -0.00013
  n-local   295.65837   297.28664   296.17955    -3.45362    -0.19093     0.24741
  augment    91.25693    91.25725    92.77879     0.00026     0.00001    -0.00003
  Kinetic   432.83845   439.20569   435.98798    -4.75525    -0.11719     1.89596
  Fock        0.00000     0.00000     0.00000     0.00000     0.00000     0.00000
  -------------------------------------------------------------------------------------
  Total      -0.00784    -0.00784    -0.00679    -0.00000    -0.00000     0.00000
  in kB      -0.03962    -0.03962    -0.03435    -0.00000    -0.00000     0.00000
  external pressure =       -0.04 kB  Pullay stress =        0.00 kB


 VOLUME and BASIS-vectors are now :
 -----------------------------------------------------------------------------
  energy-cutoff  :      520.00
  volume of cell :      316.88
      direct lattice vectors                 reciprocal lattice vectors
     3.560145166  0.000000000  0.000000000     0.280887423  0.162170389  0.000000000
    -1.780072583  3.083176921  0.000000000    -0.000000000  0.324340778  0.000000000
     0.000000000  0.000000000 28.868563000     0.000000000  0.000000000  0.034639757

  length of vectors
     3.560145166  3.560145830 28.868563000     0.324340838  0.324340778  0.034639757


 FORCES acting on ions
    electron-ion (+dipol)            ewald-force                    non-local-force                 convergence-correction
 -----------------------------------------------------------------------------------------------
   0.333E-04 -.282E-04 -.417E+03   0.107E-03 -.476E-04 0.416E+03   0.406E-17 0.393E-18 0.315E+00   0.147E-09 -.116E-09 0.146E-03
   -.333E-04 0.282E-04 0.417E+03   -.107E-03 0.476E-04 -.416E+03   -.638E-17 0.126E-18 -.315E+00   -.147E-09 0.116E-09 -.146E-03
   -.404E-13 0.158E-13 0.476E-11   0.120E-14 0.264E-13 -.568E-12   -.304E-26 0.397E-26 -.675E-26   -.423E-13 -.592E-15 0.469E-12
   -.867E-03 0.470E-03 0.471E+03   -.209E-03 0.158E-03 -.467E+03   -.347E-17 0.229E-16 -.340E+01   0.165E-08 -.768E-09 -.102E-02
   0.867E-03 -.470E-03 -.471E+03   0.209E-03 -.158E-03 0.467E+03   -.219E-17 -.904E-17 0.340E+01   -.165E-08 0.768E-09 0.102E-02
   -.101E-02 0.590E-03 -.100E+04   -.109E-03 0.476E-04 0.101E+04   -.227E-16 -.323E-18 -.490E+01   -.773E-09 0.467E-09 0.389E-03
   0.101E-02 -.590E-03 0.100E+04   0.109E-03 -.476E-04 -.101E+04   0.132E-16 -.612E-17 0.490E+01   0.773E-09 -.467E-09 -.389E-03
 -----------------------------------------------------------------------------------------------
   0.316E-12 0.901E-13 0.212E-10   0.459E-14 0.322E-13 0.114E-12   -.175E-16 0.794E-17 0.000E+00   -.336E-13 -.103E-14 0.111E-11
 
 
 POSITION                                       TOTAL-FORCE (eV/Angst)
 -----------------------------------------------------------------------------------
     -0.00000      2.05545     17.74970        -0.000000     -0.000000     -0.006453
      1.78007      1.02772     11.11886         0.000000      0.000000      0.006453
      0.00000     -0.00000     14.43428         0.000000      0.000000     -0.000000
      1.78007      1.02772     13.38319        -0.000000      0.000000      0.007447
     -0.00000      2.05545     15.48537         0.000000     -0.000000     -0.007447
      1.78007      1.02772     18.83975         0.000000      0.000000      0.009216
     -0.00000      2.05545     10.02881        -0.000000      0.000000     -0.009216
 -----------------------------------------------------------------------------------
    total drift:                                0.000000      0.000000      0.000000


--------------------------------------------------------------------------------------------------------



  FREE ENERGIE OF THE ION-ELECTRON SYSTEM (eV)
  ---------------------------------------------------
  free  energy   TOTEN  =       -35.93725070 eV

  energy  without entropy=      -35.93610986  energy(sigma->0) =      -35.93668028
 
 d Force = 0.8767758E-04[ 0.423E-04, 0.133E-03]  d Energy = 0.1353830E-03-0.477E-04
 d Force = 0.2548810E+00[ 0.255E+00, 0.255E+00]  d Ewald  =-0.1217462E+02 0.124E+02


--------------------------------------------------------------------------------------------------------


    POTLOK:  cpu time    0.0221: real time    0.0222


--------------------------------------------------------------------------------------------------------


 Conjugate gradient step on ions:
 trial-energy change:   -0.000135  1 .order   -0.000129   -0.000208   -0.000050
  (g-gl).g = 0.254E-04      g.g   = 0.221E-03  gl.gl    = 0.345E-02
 g(Force)  = 0.140E-03   g(Stress)= 0.812E-04 ortho     = 0.199E-04
 gamma     =   0.00737
 trial     =   0.93944
 opt step  =   1.16623  (harmonic =   1.23722) maximal distance =0.00174671
 next E    =   -35.937257   (d E  =  -0.00014)


--------------------------------------------------------------------------------------------------------


  
 reached required accuracy - stopping structural energy minimisation
     LOOP+:  cpu time   62.8121: real time   62.9486
    4ORBIT:  cpu time    0.0000: real time    0.0000
 


 total charge     
 
# of ion       s       p       d       tot
------------------------------------------
    1        1.070   1.201   0.218   2.488
    2        1.070   1.201   0.218   2.488
    3        0.393   0.508   7.407   8.308
    4        1.343   2.315   0.000   3.658
    5        1.343   2.315   0.000   3.658
    6        1.344   2.367   0.000   3.710
    7        1.344   2.367   0.000   3.710
--------------------------------------------------
tot          7.905  12.272   7.842  28.019
 


 magnetization (x)
 
# of ion       s       p       d       tot
------------------------------------------
    1        0.011   0.009   0.002   0.022
    2        0.011   0.009   0.002   0.022
    3        0.001   0.003   0.823   0.826
    4        0.022  -0.008   0.000   0.015
    5        0.022  -0.008   0.000   0.015
    6        0.001   0.013   0.000   0.013
    7        0.001   0.013   0.000   0.013
--------------------------------------------------
tot          0.069   0.031   0.827   0.927
 

 total amount of memory used by VASP MPI-rank0    88898. kBytes
=======================================================================

   base      :      30000. kBytes
   nonl-proj :      48130. kBytes
   fftplans  :        670. kBytes
   grid      :       6343. kBytes
   one-center:        217. kBytes
   wavefun   :       3538. kBytes
 
  
  
 General timing and accounting informations for this job:
 ========================================================
  
                  Total CPU time used (sec):     1670.038
                            User time (sec):     1639.550
                          System time (sec):       30.489
                         Elapsed time (sec):     1674.636
  
                   Maximum memory used (kb):      171600.
                   Average memory used (kb):           0.
  
                          Minor page faults:       729275
                          Major page faults:           15
                 Voluntary context switches:        21037
