nqpoint: 459    
npath: 9      
segment_nqpoint:
- 51
- 51
- 51
- 51
- 51
- 51
- 51
- 51
- 51
labels:
- [ '$\Gamma$', '$\mathrm{M}$' ]
- [ '$\mathrm{M}$', '$\mathrm{K}$' ]
- [ '$\mathrm{K}$', '$\Gamma$' ]
- [ '$\Gamma$', '$\mathrm{A}$' ]
- [ '$\mathrm{A}$', '$\mathrm{L}$' ]
- [ '$\mathrm{L}$', '$\mathrm{H}$' ]
- [ '$\mathrm{H}$', '$\mathrm{A}$' ]
- [ '$\mathrm{L}$', '$\mathrm{M}$' ]
- [ '$\mathrm{H}$', '$\mathrm{K}$' ]
reciprocal_lattice:
- [   0.28088742,   0.16217039,   0.00000000 ] # a*
- [   0.00000000,   0.32434078,   0.00000000 ] # b*
- [   0.00000000,   0.00000000,   0.03463976 ] # c*
natom: 7      
lattice:
- [     3.560145166469058,     0.000000000000000,     0.000000000000000 ] # a
- [    -1.780072583234529,     3.083176921297913,     0.000000000000000 ] # b
- [     0.000000000000000,     0.000000000000000,    28.868563000000002 ] # c
points:
- symbol: Ga # 1
  coordinates: [  0.333333000000003,  0.666666999999997,  0.614845269087282 ]
  mass: 69.723000
- symbol: Ga # 2
  coordinates: [  0.666666999999997,  0.333333000000003,  0.385154730912718 ]
  mass: 69.723000
- symbol: Co # 3
  coordinates: [  0.000000000000000,  0.000000000000000,  0.500000000000000 ]
  mass: 58.933195
- symbol: S  # 4
  coordinates: [  0.666666999999997,  0.333333000000003,  0.463590460923103 ]
  mass: 32.065000
- symbol: S  # 5
  coordinates: [  0.333333000000003,  0.666666999999997,  0.536409539076897 ]
  mass: 32.065000
- symbol: S  # 6
  coordinates: [  0.666666999999997,  0.333333000000003,  0.652604435914053 ]
  mass: 32.065000
- symbol: S  # 7
  coordinates: [  0.333333000000003,  0.666666999999997,  0.347395564085947 ]
  mass: 32.065000
supercell_matrix:
- [    9,    0,    0 ]
- [    0,    9,    0 ]
- [    0,    0,    1 ]

phonon:
- q-position: [    0.0000000,    0.0000000,    0.0000000 ]
  distance:    0.0000000
  band:
  - # 1
    frequency:    1.0904990408
  - # 2
    frequency:    1.0904991194
  - # 3
    frequency:    2.4905904262
  - # 4
    frequency:    2.8706152125
  - # 5
    frequency:    2.8706157684
  - # 6
    frequency:    3.1304702263
  - # 7
    frequency:    3.1304708205
  - # 8
    frequency:    4.4826424958
  - # 9
    frequency:    4.5661988247
  - # 10
    frequency:    6.7438584576
  - # 11
    frequency:    6.7438599080
  - # 12
    frequency:    7.0051305553
  - # 13
    frequency:    7.5513621214
  - # 14
    frequency:    9.3489748093
  - # 15
    frequency:    9.3489758596
  - # 16
    frequency:   10.0465814049
  - # 17
    frequency:   10.0465833895
  - # 18
    frequency:   10.0605921055
  - # 19
    frequency:   10.0605940971
  - # 20
    frequency:   13.4307654182
  - # 21
    frequency:   14.2788476423

- q-position: [    0.0100000,    0.0000000,    0.0000000 ]
  distance:    0.0032434
  band:
  - # 1
    frequency:    1.0952945513
  - # 2
    frequency:    1.1056624388
  - # 3
    frequency:    2.4729474944
  - # 4
    frequency:    2.8708264419
  - # 5
    frequency:    2.8880929001
  - # 6
    frequency:    3.1296729837
  - # 7
    frequency:    3.1300426401
  - # 8
    frequency:    4.4825309729
  - # 9
    frequency:    4.5674900762
  - # 10
    frequency:    6.7424820737
  - # 11
    frequency:    6.7444457312
  - # 12
    frequency:    7.0075874341
  - # 13
    frequency:    7.5500606355
  - # 14
    frequency:    9.3471989621
  - # 15
    frequency:    9.3481918729
  - # 16
    frequency:   10.0459973018
  - # 17
    frequency:   10.0475071529
  - # 18
    frequency:   10.0598726097
  - # 19
    frequency:   10.0616096956
  - # 20
    frequency:   13.4282189352
  - # 21
    frequency:   14.2763664767

- q-position: [    0.0200000,    0.0000000,    0.0000000 ]
  distance:    0.0064868
  band:
  - # 1
    frequency:    1.1095278346
  - # 2
    frequency:    1.1498416325
  - # 3
    frequency:    2.4272635383
  - # 4
    frequency:    2.8714487872
  - # 5
    frequency:    2.9332692926
  - # 6
    frequency:    3.1272887802
  - # 7
    frequency:    3.1288022151
  - # 8
    frequency:    4.4822067937
  - # 9
    frequency:    4.5713477719
  - # 10
    frequency:    6.7384793418
  - # 11
    frequency:    6.7461973599
  - # 12
    frequency:    7.0148174442
  - # 13
    frequency:    7.5461815342
  - # 14
    frequency:    9.3418814720
  - # 15
    frequency:    9.3458471615
  - # 16
    frequency:   10.0442436452
  - # 17
    frequency:   10.0502720984
  - # 18
    frequency:   10.0577148660
  - # 19
    frequency:   10.0646479505
  - # 20
    frequency:   13.4205962390
  - # 21
    frequency:   14.2689339975

- q-position: [    0.0300000,    0.0000000,    0.0000000 ]
  distance:    0.0097302
  band:
  - # 1
    frequency:    1.1327588132
  - # 2
    frequency:    1.2195701037
  - # 3
    frequency:    2.3654965541
  - # 4
    frequency:    2.8724490301
  - # 5
    frequency:    2.9941084837
  - # 6
    frequency:    3.1233413748
  - # 7
    frequency:    3.1269277122
  - # 8
    frequency:    4.4817012624
  - # 9
    frequency:    4.5777247245
  - # 10
    frequency:    6.7321890596
  - # 11
    frequency:    6.7490900519
  - # 12
    frequency:    7.0264464681
  - # 13
    frequency:    7.5398012002
  - # 14
    frequency:    9.3330580705
  - # 15
    frequency:    9.3419582283
  - # 16
    frequency:   10.0413244324
  - # 17
    frequency:   10.0541293174
  - # 18
    frequency:   10.0548507960
  - # 19
    frequency:   10.0696753924
  - # 20
    frequency:   13.4079474488
  - # 21
    frequency:   14.2565831917

- q-position: [    0.0400000,    0.0000000,    0.0000000 ]
  distance:    0.0129736
  band:
  - # 1
    frequency:    1.1643125420
  - # 2
    frequency:    1.3102764891
  - # 3
    frequency:    2.2953679758
  - # 4
    frequency:    2.8737717370
  - # 5
    frequency:    3.0622357849
  - # 6
    frequency:    3.1178710744
  - # 7
    frequency:    3.1252383019
  - # 8
    frequency:    4.4810671534
  - # 9
    frequency:    4.5865453865
  - # 10
    frequency:    6.7240516265
  - # 11
    frequency:    6.7530838913
  - # 12
    frequency:    7.0419740803
  - # 13
    frequency:    7.5310480580
  - # 14
    frequency:    9.3207884731
  - # 15
    frequency:    9.3365534675
  - # 16
    frequency:   10.0372447884
  - # 17
    frequency:   10.0491321445
  - # 18
    frequency:   10.0611980616
  - # 19
    frequency:   10.0766385467
  - # 20
    frequency:   13.3903556340
  - # 21
    frequency:   14.2393688212

- q-position: [    0.0500000,    0.0000000,    0.0000000 ]
  distance:    0.0162170
  band:
  - # 1
    frequency:    1.2033502831
  - # 2
    frequency:    1.4172740449
  - # 3
    frequency:    2.2208570957
  - # 4
    frequency:    2.8753393660
  - # 5
    frequency:    3.1109361862
  - # 6
    frequency:    3.1134932007
  - # 7
    frequency:    3.1441483528
  - # 8
    frequency:    4.4803800149
  - # 9
    frequency:    4.5977099419
  - # 10
    frequency:    6.7145099168
  - # 11
    frequency:    6.7581232352
  - # 12
    frequency:    7.0608730647
  - # 13
    frequency:    7.5201045571
  - # 14
    frequency:    9.3051582720
  - # 15
    frequency:    9.3296726583
  - # 16
    frequency:   10.0320113583
  - # 17
    frequency:   10.0427463971
  - # 18
    frequency:   10.0692495797
  - # 19
    frequency:   10.0854640728
  - # 20
    frequency:   13.3679361220
  - # 21
    frequency:   14.2173670979

- q-position: [    0.0600000,    0.0000000,    0.0000000 ]
  distance:    0.0194605
  band:
  - # 1
    frequency:    1.2489431816
  - # 2
    frequency:    1.5363200419
  - # 3
    frequency:    2.1441125052
  - # 4
    frequency:    2.8770521855
  - # 5
    frequency:    3.1026150505
  - # 6
    frequency:    3.1138139936
  - # 7
    frequency:    3.2159044583
  - # 8
    frequency:    4.4797405732
  - # 9
    frequency:    4.6110992479
  - # 10
    frequency:    6.7039532409
  - # 11
    frequency:    6.7641369585
  - # 12
    frequency:    7.0826440163
  - # 13
    frequency:    7.5072107162
  - # 14
    frequency:    9.2862805433
  - # 15
    frequency:    9.3213669809
  - # 16
    frequency:   10.0256313347
  - # 17
    frequency:   10.0350028639
  - # 18
    frequency:   10.0789219185
  - # 19
    frequency:   10.0960595190
  - # 20
    frequency:   13.3408355299
  - # 21
    frequency:   14.1906752319

- q-position: [    0.0700000,    0.0000000,    0.0000000 ]
  distance:    0.0227039
  band:
  - # 1
    frequency:    1.3001359300
  - # 2
    frequency:    1.6636864793
  - # 3
    frequency:    2.0666124142
  - # 4
    frequency:    2.8787879812
  - # 5
    frequency:    3.0930088612
  - # 6
    frequency:    3.1101267224
  - # 7
    frequency:    3.2926415026
  - # 8
    frequency:    4.4792786052
  - # 9
    frequency:    4.6265802567
  - # 10
    frequency:    6.6927024157
  - # 11
    frequency:    6.7710387794
  - # 12
    frequency:    7.1068262847
  - # 13
    frequency:    7.4926704862
  - # 14
    frequency:    9.2642975102
  - # 15
    frequency:    9.3116990199
  - # 16
    frequency:   10.0181099848
  - # 17
    frequency:   10.0259423963
  - # 18
    frequency:   10.0901134009
  - # 19
    frequency:   10.1083137892
  - # 20
    frequency:   13.3092305250
  - # 21
    frequency:   14.1594108544

- q-position: [    0.0800000,    0.0000000,    0.0000000 ]
  distance:    0.0259473
  band:
  - # 1
    frequency:    1.3559938954
  - # 2
    frequency:    1.7951523750
  - # 3
    frequency:    1.9906168146
  - # 4
    frequency:    2.8804014766
  - # 5
    frequency:    3.0822453856
  - # 6
    frequency:    3.1059375159
  - # 7
    frequency:    3.3703185896
  - # 8
    frequency:    4.4791587642
  - # 9
    frequency:    4.6440116642
  - # 10
    frequency:    6.6810181179
  - # 11
    frequency:    6.7787276724
  - # 12
    frequency:    7.1329801472
  - # 13
    frequency:    7.4768636470
  - # 14
    frequency:    9.2393821312
  - # 15
    frequency:    9.3007427422
  - # 16
    frequency:   10.0094435022
  - # 17
    frequency:   10.0156228943
  - # 18
    frequency:   10.1027057253
  - # 19
    frequency:   10.1220974686
  - # 20
    frequency:   13.2733263158
  - # 21
    frequency:   14.1237113188

- q-position: [    0.0900000,    0.0000000,    0.0000000 ]
  distance:    0.0291907
  band:
  - # 1
    frequency:    1.4156326948
  - # 2
    frequency:    1.8878430479
  - # 3
    frequency:    1.9574317968
  - # 4
    frequency:    2.8817235187
  - # 5
    frequency:    3.0704835932
  - # 6
    frequency:    3.1016975762
  - # 7
    frequency:    3.4481198363
  - # 8
    frequency:    4.4795890451
  - # 9
    frequency:    4.6632496413
  - # 10
    frequency:    6.6691175336
  - # 11
    frequency:    6.7870883811
  - # 12
    frequency:    7.1606488420
  - # 13
    frequency:    7.4602693421
  - # 14
    frequency:    9.2117395522
  - # 15
    frequency:    9.2885834322
  - # 16
    frequency:    9.9995947335
  - # 17
    frequency:   10.0041434002
  - # 18
    frequency:   10.1165660672
  - # 19
    frequency:   10.1372632632
  - # 20
    frequency:   13.2333548812
  - # 21
    frequency:   14.0837328843

- q-position: [    0.1000000,    0.0000000,    0.0000000 ]
  distance:    0.0324341
  band:
  - # 1
    frequency:    1.4782325676
  - # 2
    frequency:    1.8259281805
  - # 3
    frequency:    2.0816899421
  - # 4
    frequency:    2.8825604430
  - # 5
    frequency:    3.0579188879
  - # 6
    frequency:    3.0976463289
  - # 7
    frequency:    3.5254881659
  - # 8
    frequency:    4.4808327794
  - # 9
    frequency:    4.6841536289
  - # 10
    frequency:    6.6571912765
  - # 11
    frequency:    6.7959920472
  - # 12
    frequency:    7.1892937920
  - # 13
    frequency:    7.4435156836
  - # 14
    frequency:    9.1816084028
  - # 15
    frequency:    9.2753175625
  - # 16
    frequency:    9.9884058440
  - # 17
    frequency:    9.9917312445
  - # 18
    frequency:   10.1315493470
  - # 19
    frequency:   10.1536467848
  - # 20
    frequency:   13.1895729468
  - # 21
    frequency:   14.0396497895

- q-position: [    0.1100000,    0.0000000,    0.0000000 ]
  distance:    0.0356775
  band:
  - # 1
    frequency:    1.5430411187
  - # 2
    frequency:    1.7519179626
  - # 3
    frequency:    2.2199948536
  - # 4
    frequency:    2.8826948870
  - # 5
    frequency:    3.0447878518
  - # 6
    frequency:    3.0939765291
  - # 7
    frequency:    3.6018871589
  - # 8
    frequency:    4.4832251028
  - # 9
    frequency:    4.7065922836
  - # 10
    frequency:    6.6454175509
  - # 11
    frequency:    6.8052969745
  - # 12
    frequency:    7.2181702442
  - # 13
    frequency:    7.4274909540
  - # 14
    frequency:    9.1492619330
  - # 15
    frequency:    9.2610525750
  - # 16
    frequency:    9.9754957961
  - # 17
    frequency:    9.9788443757
  - # 18
    frequency:   10.1475004126
  - # 19
    frequency:   10.1710677965
  - # 20
    frequency:   13.1422597201
  - # 21
    frequency:   13.9916532229

- q-position: [    0.1200000,    0.0000000,    0.0000000 ]
  distance:    0.0389209
  band:
  - # 1
    frequency:    1.6093678037
  - # 2
    frequency:    1.6790831348
  - # 3
    frequency:    2.3584322343
  - # 4
    frequency:    2.8818910427
  - # 5
    frequency:    3.0313697813
  - # 6
    frequency:    3.0908720743
  - # 7
    frequency:    3.6767180592
  - # 8
    frequency:    4.4871944200
  - # 9
    frequency:    4.7304497280
  - # 10
    frequency:    6.6339730238
  - # 11
    frequency:    6.8148495533
  - # 12
    frequency:    7.2460581625
  - # 13
    frequency:    7.4136018449
  - # 14
    frequency:    9.1150089637
  - # 15
    frequency:    9.2459065409
  - # 16
    frequency:    9.9608331786
  - # 17
    frequency:    9.9655983398
  - # 18
    frequency:   10.1642560006
  - # 19
    frequency:   10.1893319146
  - # 20
    frequency:   13.0917144038
  - # 21
    frequency:   13.9399502003

- q-position: [    0.1300000,    0.0000000,    0.0000000 ]
  distance:    0.0421643
  band:
  - # 1
    frequency:    1.6089880786
  - # 2
    frequency:    1.6765726525
  - # 3
    frequency:    2.4949567011
  - # 4
    frequency:    2.8799101917
  - # 5
    frequency:    3.0179795774
  - # 6
    frequency:    3.0885436993
  - # 7
    frequency:    3.7492667963
  - # 8
    frequency:    4.4932877405
  - # 9
    frequency:    4.7556322225
  - # 10
    frequency:    6.6230408008
  - # 11
    frequency:    6.8244853747
  - # 12
    frequency:    7.2707053028
  - # 13
    frequency:    7.4043211881
  - # 14
    frequency:    9.0791945684
  - # 15
    frequency:    9.2300076670
  - # 16
    frequency:    9.9448365419
  - # 17
    frequency:    9.9516657616
  - # 18
    frequency:   10.1816464267
  - # 19
    frequency:   10.2082326663
  - # 20
    frequency:   13.0382535096
  - # 21
    frequency:   13.8847623624

- q-position: [    0.1400000,    0.0000000,    0.0000000 ]
  distance:    0.0454077
  band:
  - # 1
    frequency:    1.5426559489
  - # 2
    frequency:    1.7440506904
  - # 3
    frequency:    2.6281027808
  - # 4
    frequency:    2.8765453907
  - # 5
    frequency:    3.0049437030
  - # 6
    frequency:    3.0873109689
  - # 7
    frequency:    3.8186648958
  - # 8
    frequency:    4.5021944162
  - # 9
    frequency:    4.7820752117
  - # 10
    frequency:    6.6128160736
  - # 11
    frequency:    6.8340305693
  - # 12
    frequency:    7.2883015053
  - # 13
    frequency:    7.4037054214
  - # 14
    frequency:    9.0422003220
  - # 15
    frequency:    9.2134936070
  - # 16
    frequency:    9.9277537973
  - # 17
    frequency:    9.9368967714
  - # 18
    frequency:   10.1994970121
  - # 19
    frequency:   10.2275537677
  - # 20
    frequency:   12.9822080056
  - # 21
    frequency:   13.8263247055

- q-position: [    0.1500000,    0.0000000,    0.0000000 ]
  distance:    0.0486511
  band:
  - # 1
    frequency:    1.4810685381
  - # 2
    frequency:    1.8112125494
  - # 3
    frequency:    2.7561934715
  - # 4
    frequency:    2.8716832476
  - # 5
    frequency:    2.9925520655
  - # 6
    frequency:    3.0878546064
  - # 7
    frequency:    3.8838725341
  - # 8
    frequency:    4.5147537330
  - # 9
    frequency:    4.8097503650
  - # 10
    frequency:    6.6035098777
  - # 11
    frequency:    6.8433034068
  - # 12
    frequency:    7.2956067492
  - # 13
    frequency:    7.4152587687
  - # 14
    frequency:    9.0044438486
  - # 15
    frequency:    9.1965105391
  - # 16
    frequency:    9.9097109189
  - # 17
    frequency:    9.9212701409
  - # 18
    frequency:   10.2176292639
  - # 19
    frequency:   10.2470714850
  - # 20
    frequency:   12.9239203358
  - # 21
    frequency:   13.7648842640

- q-position: [    0.1600000,    0.0000000,    0.0000000 ]
  distance:    0.0518945
  band:
  - # 1
    frequency:    1.4252357830
  - # 2
    frequency:    1.8774610171
  - # 3
    frequency:    2.8653888391
  - # 4
    frequency:    2.8762310982
  - # 5
    frequency:    2.9809907649
  - # 6
    frequency:    3.0922161980
  - # 7
    frequency:    3.9437100677
  - # 8
    frequency:    4.5319176528
  - # 9
    frequency:    4.8386716963
  - # 10
    frequency:    6.5953511711
  - # 11
    frequency:    6.8521161950
  - # 12
    frequency:    7.2945056674
  - # 13
    frequency:    7.4373713589
  - # 14
    frequency:    8.9663772709
  - # 15
    frequency:    9.1792119679
  - # 16
    frequency:    9.8907990830
  - # 17
    frequency:    9.9048059955
  - # 18
    frequency:   10.2358618196
  - # 19
    frequency:   10.2665569717
  - # 20
    frequency:   12.8637413609
  - # 21
    frequency:   13.7006987623

- q-position: [    0.1700000,    0.0000000,    0.0000000 ]
  distance:    0.0551379
  band:
  - # 1
    frequency:    1.3761889560
  - # 2
    frequency:    1.9421628585
  - # 3
    frequency:    2.8579874917
  - # 4
    frequency:    2.9702830150
  - # 5
    frequency:    2.9787263521
  - # 6
    frequency:    3.1089317895
  - # 7
    frequency:    3.9969762901
  - # 8
    frequency:    4.5546294978
  - # 9
    frequency:    4.8688991389
  - # 10
    frequency:    6.5885872056
  - # 11
    frequency:    6.8602775141
  - # 12
    frequency:    7.2897561099
  - # 13
    frequency:    7.4655640817
  - # 14
    frequency:    8.9284840355
  - # 15
    frequency:    9.1617572132
  - # 16
    frequency:    9.8710999708
  - # 17
    frequency:    9.8875403739
  - # 18
    frequency:   10.2540111442
  - # 19
    frequency:   10.2857785059
  - # 20
    frequency:   12.8020272796
  - # 21
    frequency:   13.6340352586

- q-position: [    0.1800000,    0.0000000,    0.0000000 ]
  distance:    0.0583814
  band:
  - # 1
    frequency:    1.3349416735
  - # 2
    frequency:    2.0046155719
  - # 3
    frequency:    2.8501062469
  - # 4
    frequency:    2.9602758993
  - # 5
    frequency:    3.0362756614
  - # 6
    frequency:    3.1644431216
  - # 7
    frequency:    4.0426725505
  - # 8
    frequency:    4.5835991242
  - # 9
    frequency:    4.9005371634
  - # 10
    frequency:    6.5834819688
  - # 11
    frequency:    6.8675948158
  - # 12
    frequency:    7.2847633058
  - # 13
    frequency:    7.4967094630
  - # 14
    frequency:    8.8912734602
  - # 15
    frequency:    9.1443095543
  - # 16
    frequency:    9.8506931196
  - # 17
    frequency:    9.8695177483
  - # 18
    frequency:   10.2718919561
  - # 19
    frequency:   10.3045035802
  - # 20
    frequency:   12.7391365977
  - # 21
    frequency:   13.5651688039

- q-position: [    0.1900000,    0.0000000,    0.0000000 ]
  distance:    0.0616248
  band:
  - # 1
    frequency:    1.3024288800
  - # 2
    frequency:    2.0640106860
  - # 3
    frequency:    2.8426612404
  - # 4
    frequency:    2.9506851290
  - # 5
    frequency:    3.0531616902
  - # 6
    frequency:    3.2535029832
  - # 7
    frequency:    4.0802754894
  - # 8
    frequency:    4.6190318070
  - # 9
    frequency:    4.9337254064
  - # 10
    frequency:    6.5803123614
  - # 11
    frequency:    6.8738774018
  - # 12
    frequency:    7.2813734726
  - # 13
    frequency:    7.5292358835
  - # 14
    frequency:    8.8552722830
  - # 15
    frequency:    9.1270340141
  - # 16
    frequency:    9.8296583542
  - # 17
    frequency:    9.8507884682
  - # 18
    frequency:   10.2893173434
  - # 19
    frequency:   10.3225008258
  - # 20
    frequency:   12.6754272191
  - # 21
    frequency:   13.4943811405

- q-position: [    0.2000000,    0.0000000,    0.0000000 ]
  distance:    0.0648682
  band:
  - # 1
    frequency:    1.2794315948
  - # 2
    frequency:    2.1194005584
  - # 3
    frequency:    2.8368123550
  - # 4
    frequency:    2.9411694249
  - # 5
    frequency:    3.0583374899
  - # 6
    frequency:    3.3462127779
  - # 7
    frequency:    4.1099106969
  - # 8
    frequency:    4.6604586102
  - # 9
    frequency:    4.9686182836
  - # 10
    frequency:    6.5793617769
  - # 11
    frequency:    6.8789397806
  - # 12
    frequency:    7.2806117265
  - # 13
    frequency:    7.5623915544
  - # 14
    frequency:    8.8210125429
  - # 15
    frequency:    9.1100947860
  - # 16
    frequency:    9.8080766544
  - # 17
    frequency:    9.8314077648
  - # 18
    frequency:   10.3060985338
  - # 19
    frequency:   10.3395417675
  - # 20
    frequency:   12.6112537376
  - # 21
    frequency:   13.4219594653

- q-position: [    0.2100000,    0.0000000,    0.0000000 ]
  distance:    0.0681116
  band:
  - # 1
    frequency:    1.2664993529
  - # 2
    frequency:    2.1696867536
  - # 3
    frequency:    2.8339060976
  - # 4
    frequency:    2.9313954088
  - # 5
    frequency:    3.0601011431
  - # 6
    frequency:    3.4333850346
  - # 7
    frequency:    4.1323018565
  - # 8
    frequency:    4.7067937044
  - # 9
    frequency:    5.0053517582
  - # 10
    frequency:    6.5809109191
  - # 11
    frequency:    6.8826053694
  - # 12
    frequency:    7.2830941024
  - # 13
    frequency:    7.5958393810
  - # 14
    frequency:    8.7890153845
  - # 15
    frequency:    9.0936523331
  - # 16
    frequency:    9.7860304497
  - # 17
    frequency:    9.8114353180
  - # 18
    frequency:   10.3220442808
  - # 19
    frequency:   10.3554024296
  - # 20
    frequency:   12.5469650063
  - # 21
    frequency:   13.3481952836

- q-position: [    0.2200000,    0.0000000,    0.0000000 ]
  distance:    0.0713550
  band:
  - # 1
    frequency:    1.2638864027
  - # 2
    frequency:    2.2136646452
  - # 3
    frequency:    2.8353896283
  - # 4
    frequency:    2.9210753374
  - # 5
    frequency:    3.0602962482
  - # 6
    frequency:    3.5123931971
  - # 7
    frequency:    4.1485304089
  - # 8
    frequency:    4.7565834498
  - # 9
    frequency:    5.0439982798
  - # 10
    frequency:    6.5852260370
  - # 11
    frequency:    6.8847104806
  - # 12
    frequency:    7.2892083457
  - # 13
    frequency:    7.6294881051
  - # 14
    frequency:    8.7597709403
  - # 15
    frequency:    9.0778602222
  - # 16
    frequency:    9.7636036794
  - # 17
    frequency:    9.7909350372
  - # 18
    frequency:   10.3369598390
  - # 19
    frequency:   10.3698648288
  - # 20
    frequency:   12.4829020513
  - # 21
    frequency:   13.2733833743

- q-position: [    0.2300000,    0.0000000,    0.0000000 ]
  distance:    0.0745984
  band:
  - # 1
    frequency:    1.2715176434
  - # 2
    frequency:    2.2501684448
  - # 3
    frequency:    2.8426457010
  - # 4
    frequency:    2.9099836290
  - # 5
    frequency:    3.0593993145
  - # 6
    frequency:    3.5821417142
  - # 7
    frequency:    4.1597620789
  - # 8
    frequency:    4.8082905342
  - # 9
    frequency:    5.0845151606
  - # 10
    frequency:    6.5925452979
  - # 11
    frequency:    6.8851084918
  - # 12
    frequency:    7.2991990579
  - # 13
    frequency:    7.6634226969
  - # 14
    frequency:    8.7337153396
  - # 15
    frequency:    9.0628617926
  - # 16
    frequency:    9.7408817452
  - # 17
    frequency:    9.7699749196
  - # 18
    frequency:   10.3506455099
  - # 19
    frequency:   10.3827184252
  - # 20
    frequency:   12.4193963803
  - # 21
    frequency:   13.1978208849

- q-position: [    0.2400000,    0.0000000,    0.0000000 ]
  distance:    0.0778418
  band:
  - # 1
    frequency:    1.2889940290
  - # 2
    frequency:    2.2783300350
  - # 3
    frequency:    2.8567058915
  - # 4
    frequency:    2.8979813526
  - # 5
    frequency:    3.0574995212
  - # 6
    frequency:    3.6421411964
  - # 7
    frequency:    4.1670602809
  - # 8
    frequency:    4.8604926481
  - # 9
    frequency:    5.1266960022
  - # 10
    frequency:    6.6030647018
  - # 11
    frequency:    6.8836740629
  - # 12
    frequency:    7.3132173839
  - # 13
    frequency:    7.6978704165
  - # 14
    frequency:    8.7112070190
  - # 15
    frequency:    9.0487867934
  - # 16
    frequency:    9.7179514112
  - # 17
    frequency:    9.7486269209
  - # 18
    frequency:   10.3628947494
  - # 19
    frequency:   10.3937616379
  - # 20
    frequency:   12.3567687016
  - # 21
    frequency:   13.1218065670

- q-position: [    0.2500000,    0.0000000,    0.0000000 ]
  distance:    0.0810852
  band:
  - # 1
    frequency:    1.3156364671
  - # 2
    frequency:    2.2978691644
  - # 3
    frequency:    2.8771669233
  - # 4
    frequency:    2.8858062472
  - # 5
    frequency:    3.0545527940
  - # 6
    frequency:    3.6922949228
  - # 7
    frequency:    4.1713052645
  - # 8
    frequency:    4.9119763444
  - # 9
    frequency:    5.1701370339
  - # 10
    frequency:    6.6169256324
  - # 11
    frequency:    6.8803072312
  - # 12
    frequency:    7.3313579702
  - # 13
    frequency:    7.7331745064
  - # 14
    frequency:    8.6925055800
  - # 15
    frequency:    9.0357481553
  - # 16
    frequency:    9.6949006719
  - # 17
    frequency:    9.7269668065
  - # 18
    frequency:   10.3734918342
  - # 19
    frequency:   10.4028035931
  - # 20
    frequency:   12.2953280279
  - # 21
    frequency:   13.0456401504

- q-position: [    0.2600000,    0.0000000,    0.0000000 ]
  distance:    0.0843286
  band:
  - # 1
    frequency:    1.3505569528
  - # 2
    frequency:    2.3092409475
  - # 3
    frequency:    2.8699419305
  - # 4
    frequency:    2.9071704416
  - # 5
    frequency:    3.0504700607
  - # 6
    frequency:    3.7328268245
  - # 7
    frequency:    4.1731826525
  - # 8
    frequency:    4.9617620257
  - # 9
    frequency:    5.2142286206
  - # 10
    frequency:    6.6342065554
  - # 11
    frequency:    6.8749371960
  - # 12
    frequency:    7.3536895908
  - # 13
    frequency:    7.7697627042
  - # 14
    frequency:    8.6777569899
  - # 15
    frequency:    9.0238390814
  - # 16
    frequency:    9.6718185972
  - # 17
    frequency:    9.7050739649
  - # 18
    frequency:   10.3822090961
  - # 19
    frequency:   10.4096663395
  - # 20
    frequency:   12.2353710792
  - # 21
    frequency:   12.9696218408

- q-position: [    0.2700000,    0.0000000,    0.0000000 ]
  distance:    0.0875720
  band:
  - # 1
    frequency:    1.3927404085
  - # 2
    frequency:    2.3135246470
  - # 3
    frequency:    2.8544576161
  - # 4
    frequency:    2.9416708983
  - # 5
    frequency:    3.0451566625
  - # 6
    frequency:    3.7642293783
  - # 7
    frequency:    4.1732033947
  - # 8
    frequency:    5.0090976150
  - # 9
    frequency:    5.2581769701
  - # 10
    frequency:    6.6549210957
  - # 11
    frequency:    6.8675255997
  - # 12
    frequency:    7.3802779401
  - # 13
    frequency:    7.8081062276
  - # 14
    frequency:    8.6669885214
  - # 15
    frequency:    9.0131306438
  - # 16
    frequency:    9.6487951597
  - # 17
    frequency:    9.6830311698
  - # 18
    frequency:   10.3888037718
  - # 19
    frequency:   10.4141878141
  - # 20
    frequency:   12.1771818295
  - # 21
    frequency:   12.8940519056

- q-position: [    0.2800000,    0.0000000,    0.0000000 ]
  distance:    0.0908154
  band:
  - # 1
    frequency:    1.4411217942
  - # 2
    frequency:    2.3121299333
  - # 3
    frequency:    2.8375983424
  - # 4
    frequency:    2.9811353327
  - # 5
    frequency:    3.0385341268
  - # 6
    frequency:    3.7872025860
  - # 7
    frequency:    4.1717338785
  - # 8
    frequency:    5.0534414902
  - # 9
    frequency:    5.3010544614
  - # 10
    frequency:    6.6790233512
  - # 11
    frequency:    6.8580691249
  - # 12
    frequency:    7.4111955173
  - # 13
    frequency:    7.8486712813
  - # 14
    frequency:    8.6601153390
  - # 15
    frequency:    9.0036700532
  - # 16
    frequency:    9.6259210441
  - # 17
    frequency:    9.6609242840
  - # 18
    frequency:   10.3930147463
  - # 19
    frequency:   10.4162257119
  - # 20
    frequency:   12.1210309686
  - # 21
    frequency:   12.8192302889

- q-position: [    0.2900000,    0.0000000,    0.0000000 ]
  distance:    0.0940588
  band:
  - # 1
    frequency:    1.4946483767
  - # 2
    frequency:    2.3065027182
  - # 3
    frequency:    2.8194418584
  - # 4
    frequency:    3.0241767921
  - # 5
    frequency:    3.0305540649
  - # 6
    frequency:    3.8025823977
  - # 7
    frequency:    4.1690282985
  - # 8
    frequency:    5.0944413779
  - # 9
    frequency:    5.3418717074
  - # 10
    frequency:    6.7064187966
  - # 11
    frequency:    6.8466012682
  - # 12
    frequency:    7.4465136460
  - # 13
    frequency:    7.8918698568
  - # 14
    frequency:    8.6569584289
  - # 15
    frequency:    8.9954797326
  - # 16
    frequency:    9.6032874373
  - # 17
    frequency:    9.6388418994
  - # 18
    frequency:   10.3945603040
  - # 19
    frequency:   10.4156616641
  - # 20
    frequency:   12.0671749851
  - # 21
    frequency:   12.7454561710

- q-position: [    0.3000000,    0.0000000,    0.0000000 ]
  distance:    0.0973023
  band:
  - # 1
    frequency:    1.5523232588
  - # 2
    frequency:    2.2979439474
  - # 3
    frequency:    2.8000233191
  - # 4
    frequency:    3.0212074385
  - # 5
    frequency:    3.0696068643
  - # 6
    frequency:    3.8112663558
  - # 7
    frequency:    4.1652609289
  - # 8
    frequency:    5.1319097003
  - # 9
    frequency:    5.3796616678
  - # 10
    frequency:    6.7369762821
  - # 11
    frequency:    6.8331931969