63   
7    

1    
  0.0034698222599007   0.0000000000000000   0.0093787170489730
  -0.0348252600    0.0001296600   -0.0149635800
   0.0075025100    0.0051758000    0.1140075100
   0.0011499400    0.0024792700    0.1163844900
  -0.0053025200   -0.0005628500    0.1145532500
   0.0045168200    0.0021844600    0.1158385400
   0.0007608000   -0.0000144600    0.1174998300
  -0.0021308500   -0.0087554000    0.1133638000
   0.0007569800   -0.0000131600    0.1174975500
   0.0013496800   -0.0006072100    0.1170260300
  -0.0002027800    0.0000402900   -0.1203814000
   0.0001083200   -0.0000304100   -0.1207703100
   0.0000207600    0.0001157600   -0.1202960600
  -0.0001563900   -0.0001146300   -0.1203395400
  -0.0005238800   -0.0003787400   -0.1203438400
   0.0004705800   -0.0001671500   -0.1199766800
  -0.0000272700   -0.0000654600   -0.1207576000
  -0.0001037100    0.0001352600   -0.1207839700
   0.0001565900    0.0005871800   -0.1201601600
   0.0005086200    0.0054049200    0.0007325200
   0.0001825300   -0.0001880100   -0.0012693700
   0.0001397600    0.0001810200   -0.0009507800
   0.0044673500   -0.0022759000    0.0013845000
  -0.0048795000   -0.0031012100    0.0000803400
  -0.0001706800    0.0000370700    0.0005273700
  -0.0001492200   -0.0000053500    0.0004482900
  -0.0001582000    0.0000069700   -0.0011160100
  -0.0000995900   -0.0000583600    0.0005961400
   0.0004080000   -0.0003731600    0.0675716900
  -0.0002173100   -0.0002392400    0.0676237500
   0.0001420400    0.0002272200    0.0678016800
  -0.0002449600    0.0001575700    0.0676840900
   0.0002030900    0.0000905200    0.0663727400
  -0.0001451800    0.0001099100    0.0657400200
   0.0001194400    0.0002065900    0.0676005400
  -0.0003087400    0.0000649800    0.0676426900
   0.0000457400   -0.0001855300    0.0660569900
   0.0016943800   -0.0000129800    0.0100639300
  -0.0009062600   -0.0002223600   -0.0658079800
  -0.0002434100    0.0005630300   -0.0668753000
   0.0000581100   -0.0003075100   -0.0665472500
   0.0000323900   -0.0004434700   -0.0661397200
  -0.0001802600   -0.0000004300   -0.0654576800
  -0.0001872500    0.0008873300   -0.0660138500
  -0.0000967500   -0.0000132600   -0.0656800000
   0.0004554700   -0.0005115200   -0.0666737600
   0.0356535300   -0.0195475300    0.2649577300
  -0.0011527800   -0.0007959300    0.2334864500
  -0.0099489200   -0.0067815000    0.2430799100
   0.0017968900    0.0262353500    0.2539389600
  -0.0013574800   -0.0009156400    0.2331724600
   0.0007615800   -0.0002824400    0.2323692200
   0.0005828100    0.0010158100    0.2341256600
  -0.0008268900   -0.0001743600    0.2328389300
   0.0002504200    0.0012411800    0.2327718300
   0.0000082600   -0.0000143800   -0.2303966000
   0.0000456900    0.0000123700   -0.2304788700
   0.0000938900   -0.0000610700   -0.2305525800
   0.0000957700   -0.0000265500   -0.2306156600
   0.0000500000   -0.0000335500   -0.2304251500
  -0.0001962800   -0.0000153200   -0.2296561900
   0.0000391600   -0.0000057900   -0.2305796900
   0.0000684200   -0.0000168700   -0.2303670000
   0.0000459900    0.0000291100   -0.2304628700

1    
 -0.0034698222599007   0.0000000000000000  -0.0093787170489730
   0.0332189500    0.0001245000    0.2597736100
  -0.0074674900   -0.0052081600    0.1274575800
  -0.0010558000   -0.0025130400    0.1251126400
   0.0053764400    0.0004954000    0.1269250700
  -0.0045026800   -0.0022397900    0.1256448600
  -0.0007028700   -0.0000144800    0.1239824200
   0.0021659100    0.0087487800    0.1280965400
  -0.0007066300   -0.0000131800    0.1239802900
  -0.0012878600    0.0006308400    0.1244713600
   0.0001547400   -0.0000151600   -0.1210699500
  -0.0001583000    0.0000568600   -0.1206741600
  -0.0000795500   -0.0000930700   -0.1211539300
   0.0001050500    0.0001496600   -0.1211128000
   0.0004726900    0.0004080100   -0.1211078900
  -0.0005234600    0.0001953400   -0.1214770400
  -0.0000243100    0.0000901600   -0.1206894600
   0.0000504100   -0.0001076700   -0.1206598900
  -0.0002095700   -0.0005621300   -0.1212923400
  -0.0005157200   -0.0053644900   -0.0007981400
  -0.0001414900    0.0001779700    0.0012746300
  -0.0001833900   -0.0001841200    0.0009604500
  -0.0044390400    0.0022750200   -0.0014453800
   0.0048674900    0.0031178100   -0.0001510400
   0.0001586200   -0.0000405300   -0.0005369000
   0.0001646500   -0.0000145500   -0.0004708400
   0.0001513700    0.0000061100    0.0011116100
   0.0000796000    0.0000280200   -0.0006131200
  -0.0004298400    0.0003792200    0.0664671600
   0.0001939900    0.0002699300    0.0663986900
  -0.0001744700   -0.0002243500    0.0662233400
   0.0002205100   -0.0001434400    0.0663427400
  -0.0001845900   -0.0000719200    0.0676759800
   0.0000901100   -0.0000874200    0.0683166800
  -0.0001524800   -0.0001877900    0.0664229700
   0.0003013600   -0.0000497500    0.0663704400
  -0.0000606700    0.0001741800    0.0679969500
  -0.0013954400   -0.0000131700   -0.1476060800
   0.0009058900    0.0002009300   -0.0682260300
   0.0002835900   -0.0005911300   -0.0671702800
  -0.0000122000    0.0002947700   -0.0675039200
  -0.0000280800    0.0004327800   -0.0678958900
   0.0002022900   -0.0000003500   -0.0685979100
   0.0002008600   -0.0008819400   -0.0680320400
   0.0001161500   -0.0000132900   -0.0683699500
  -0.0004317600    0.0005100700   -0.0673682400
  -0.0344111700    0.0187707500    0.1964062500
   0.0011049800    0.0008321500    0.2273320400
   0.0100328700    0.0068901300    0.2175211700
  -0.0019004800   -0.0257488000    0.2068856800
   0.0013051200    0.0009451300    0.2276520700
  -0.0008286800    0.0003122400    0.2284524800
  -0.0006323900   -0.0009892900    0.2266926400
   0.0007779000    0.0002026300    0.2279633300
  -0.0003098800   -0.0012141800    0.2280533000
   0.0000477500   -0.0000144100   -0.2304368200
   0.0000146300   -0.0000390900   -0.2303451100
  -0.0000431000    0.0000350400   -0.2302747100
  -0.0000393600    0.0000005200   -0.2302192900
   0.0000065100    0.0000086700   -0.2304097000
   0.0002522000   -0.0000153800   -0.2311662700
   0.0000169800   -0.0000267000   -0.2302554000
  -0.0000163700   -0.0000168500   -0.2304590300
   0.0000095200   -0.0000640000   -0.2303753900

19   
  0.0034698222599007   0.0000000000000000   0.0093787170489730
   0.0005334600    0.0020777900    0.1214351200
   0.0006096900    0.0004006600    0.1196302800
  -0.0002268900    0.0000498100    0.1196207800
  -0.0002740900   -0.0000856900    0.1212418200
   0.0000665300   -0.0001378700    0.1212815000
  -0.0001123600   -0.0004953300    0.1196249500
   0.0016493800   -0.0006540500    0.1231527900
  -0.0001488800    0.0001840500    0.1212554700
  -0.0019732600   -0.0014569300    0.1197114600
  -0.0019576400   -0.0014034700   -0.1216292200
  -0.0001792800    0.0002688600   -0.1201900800
   0.0014420400   -0.0005403000   -0.1181705800
  -0.0001956500   -0.0004925000   -0.1218509200
   0.0000797500   -0.0001358800   -0.1201910200
  -0.0003644600   -0.0000931300   -0.1202017800
  -0.0003041600    0.0000789800   -0.1218473700
   0.0005704200    0.0004587100   -0.1218560000
   0.0004898100    0.0019764800   -0.1199032200
  -0.0283852600    0.0000047600   -0.0631777900
  -0.0015989500   -0.0010082700    0.0017817700
  -0.0017115000   -0.0009568500    0.0016675300
  -0.0004274700    0.0007872500    0.0020088200
  -0.0020492900    0.0003528000    0.0014361800
   0.0004912600   -0.0000014800   -0.0014205800
  -0.0003458800    0.0006779300    0.0020699500
   0.0004508800    0.0000019200   -0.0014187600
  -0.0021273300    0.0001470400    0.0013831500
   0.0048988800    0.0014771700    0.0762741200
   0.0012765700    0.0010047900    0.0653598500
   0.0093153500   -0.0040074200    0.0757146300
   0.0000119100   -0.0001632100    0.0694478600
   0.0009403800    0.0001986700    0.0651505000
  -0.0007861000   -0.0011862500    0.0655851800
  -0.0000753900    0.0000620300    0.0690186200
   0.0002136600    0.0001280200    0.0698843700
   0.0023573800    0.0026343500    0.0760234500
   0.0024609900    0.0028443300   -0.0576876600
   0.0001663800    0.0000486000   -0.0642417800
  -0.0000741600    0.0000666700   -0.0650058000
  -0.0007303500   -0.0011570900   -0.0683088900
   0.0008866800    0.0002146800   -0.0688621700
   0.0000616800   -0.0001426500   -0.0646206800
   0.0101032900   -0.0044220900   -0.0577036700
   0.0012662800    0.0009254600   -0.0685777500
   0.0050213000    0.0014684600   -0.0576116700
  -0.0010764000   -0.0007841100    0.2287894700
  -0.0001765900   -0.0004510400    0.2309508200
   0.0011435100   -0.0004657800    0.2294849600
  -0.0005548500    0.0007968900    0.2302666300
  -0.0004805700    0.0001907800    0.2311191100
   0.0003256700    0.0003052300    0.2307738400
   0.0004720600   -0.0005809200    0.2304092100
  -0.0008790400   -0.0001752200    0.2301233800
   0.0003092600    0.0012913200    0.2291377900
   0.0003632800    0.0012528600   -0.2316469800
  -0.0007523300   -0.0001530000   -0.2307466100
   0.0004338100   -0.0005555700   -0.2304847500
   0.0003880600    0.0002754700   -0.2300455600
  -0.0003991700    0.0001484000   -0.2296515400
  -0.0005079100    0.0006679400   -0.2306162500
   0.0011890800   -0.0004925300   -0.2313218500
  -0.0001156300   -0.0004689700   -0.2298529900
  -0.0009978500   -0.0008015800   -0.2319714300

28   
  0.0034698222599007   0.0000000000000000   0.0093787170489730
  -0.0000051500   -0.0001309300    0.1214511600
   0.0006297100    0.0004701100    0.1213715000
  -0.0001835900    0.0000685900    0.1213443100
  -0.0001296600    0.0000173800    0.1214207100
   0.0000759700   -0.0009946300    0.1197590500
   0.0000141000   -0.0001278500    0.1212678900
  -0.0002082500   -0.0003793600    0.1214094900
  -0.0007849300    0.0004836000    0.1196915000
   0.0009138600    0.0004703200    0.1198227100
   0.0016053900    0.0000054700   -0.0434679300
   0.0008004700    0.0001187700   -0.1202007500
  -0.0019864700   -0.0004513000   -0.1199583600
  -0.0005370100    0.0020528100   -0.1200797500
   0.0005453700    0.0005706500   -0.1200809100
  -0.0002074100    0.0000141300   -0.1191815700
   0.0009537400   -0.0011005000   -0.1202017500
  -0.0001341400    0.0000132900   -0.1194036800
  -0.0007527000   -0.0011088300   -0.1199606300
   0.0078349800    0.0030838800    0.0084647000
   0.0071176300   -0.0026574100    0.0104091800
   0.0012396100   -0.0007451400   -0.0016038300
  -0.0010563900    0.0006472900    0.0023458700
   0.0025043300   -0.0004730900    0.0094087000
   0.0011805700    0.0006552900    0.0024595400
   0.0000554200   -0.0013056000    0.0023991900
   0.0007256500   -0.0003067900   -0.0019369800
  -0.0005733300    0.0010370300   -0.0012790900
  -0.0260911100    0.0000835300   -0.0604345600
   0.0020899600   -0.0007592000    0.0648133100
   0.0012496900   -0.0006836400    0.0651408300
   0.0008085600   -0.0000607200    0.0652871400
  -0.0000416300    0.0015149700    0.0646659500
  -0.0001609300    0.0000023900    0.0636011900
   0.0012158000   -0.0006865300    0.0651249300
  -0.0001649200    0.0000094000    0.0636019700
  -0.0004617700    0.0007156000    0.0648312400
  -0.0083751500    0.0039740300   -0.0630842300
   0.0112439800    0.0073390800   -0.0557606700
  -0.0004181600    0.0007579900   -0.0685715800
  -0.0009262300   -0.0002978200   -0.0688195100
  -0.0002756000    0.0034243100   -0.0632679300
   0.0003976300   -0.0004754700   -0.0683255500
  -0.0014798400   -0.0113336200   -0.0594304200
   0.0028501300   -0.0018151900   -0.0621484100
  -0.0030934700   -0.0016374700   -0.0643725900
  -0.0001807500    0.0000144300    0.2303886200
   0.0001744800   -0.0003340400    0.2309720600
   0.0001901700    0.0000033400    0.2305172200
  -0.0000207700   -0.0001671400    0.2304570300
  -0.0003396200    0.0003647400    0.2310265600
   0.0000897100    0.0000138900    0.2302615700
   0.0000698000    0.0000140100    0.2306850500
  -0.0001730200    0.0000141800    0.2291284500
  -0.0002360800    0.0002073400    0.2307997300
   0.0004396100   -0.0002695700   -0.2275077600
   0.0014529200    0.0008300500   -0.2304270700
   0.0001261600    0.0001588700   -0.2311286700
  -0.0001014100   -0.0001463500   -0.2311460000
  -0.0000283900   -0.0007649100   -0.2308211600
   0.0001975200   -0.0000561100   -0.2311153700
  -0.0000060000   -0.0006012000   -0.2289679800
  -0.0004800900    0.0002450200   -0.2308247500
   0.0008210200    0.0004746500   -0.2308188700

28   
 -0.0034698222599007   0.0000000000000000  -0.0093787170489730
   0.0000580400    0.0001014000    0.1200144100
  -0.0005873700   -0.0005012900    0.1201265000
   0.0002274700   -0.0000787700    0.1201202500
   0.0001670700   -0.0000487400    0.1200330500
  -0.0000307100    0.0009923100    0.1216978700
   0.0000554800    0.0000854200    0.1202075500
   0.0002572700    0.0003597300    0.1200686100
   0.0008595800   -0.0005275200    0.1217448800
  -0.0008832100   -0.0005057400    0.1216467600
  -0.0014834500    0.0000049500   -0.2011406600
  -0.0008987300   -0.0000480200   -0.1213192000
   0.0020526500    0.0005337800   -0.1215529600
   0.0004779400   -0.0021382900   -0.1214386700
  -0.0006001100   -0.0006171400   -0.1214353900
   0.0001748300    0.0000140500   -0.1223215700
  -0.0010845300    0.0011487400   -0.1213225700
   0.0000786800    0.0000132700   -0.1220928000
   0.0007869600    0.0012023900   -0.1215530200
  -0.0077101100   -0.0031102900   -0.0081188100
  -0.0066730200    0.0025229700   -0.0096888800
  -0.0013044700    0.0007972800    0.0016161100
   0.0010346400   -0.0006023600   -0.0023838000
  -0.0023134100    0.0005433700   -0.0089305700
  -0.0011409400   -0.0006421200   -0.0024633400
  -0.0000182600    0.0012412900   -0.0024269800
  -0.0007653100    0.0003010300    0.0019001600
   0.0006070300   -0.0011134700    0.0013239300
   0.0249672300    0.0000839400    0.1967333600
  -0.0020759100    0.0007935700    0.0691724000
  -0.0012634100    0.0007002500    0.0688902800
  -0.0008300200    0.0000521100    0.0687189000
   0.0000373600   -0.0014980100    0.0693427300
   0.0001508700    0.0000023300    0.0704372000
  -0.0012482000    0.0006876200    0.0688616400
   0.0001454900    0.0000094800    0.0704369200
   0.0004441600   -0.0006959200    0.0692032800
   0.0083711100   -0.0039940000   -0.0710084400
  -0.0110571300   -0.0072374300   -0.0781296600
   0.0004514800   -0.0007985700   -0.0654574300
   0.0009584300    0.0002884000   -0.0652054700
   0.0002581700   -0.0033199200   -0.0708113400
  -0.0004137900    0.0004952400   -0.0657111800
   0.0014658800    0.0112102600   -0.0745766900
  -0.0026825300    0.0016874500   -0.0718511600
   0.0030555000    0.0016046000   -0.0697567800
   0.0001190700    0.0000143900    0.2304544900
  -0.0002351500    0.0003676300    0.2298573300
  -0.0002389600    0.0000267800    0.2303026400
  -0.0000262700    0.0001836600    0.2303562100
   0.0002926000   -0.0003317600    0.2297981900
  -0.0001636700    0.0000139300    0.2305879200
  -0.0001324900    0.0000273700    0.2301342200
   0.0001256200    0.0000140700    0.2317336600
   0.0001798600   -0.0001857200    0.2300214800
  -0.0006309400    0.0004020700   -0.2335249900
  -0.0012314200   -0.0007732100   -0.2304676300
  -0.0000817300   -0.0001891700   -0.2296492200
   0.0001625900    0.0001259800   -0.2296439500
   0.0000836400    0.0007477900   -0.2299678200
  -0.0001413200    0.0000193700   -0.2296581000
   0.0000866900    0.0003303500   -0.2319969200
   0.0005361700   -0.0002770200   -0.2299601800
  -0.0007830100   -0.0005161400   -0.2299767700

46   
  0.0034698222599007   0.0000000000000000   0.0093787170489730
   0.0409556200   -0.0225512700    0.1523451400
  -0.0165464700   -0.0106527100    0.1360592200
  -0.0011001800   -0.0020161900    0.1238095400
   0.0016595100    0.0015788200    0.1240647800
   0.0003078100   -0.0012667200    0.1230908800
  -0.0018037200    0.0003917300    0.1235485900
   0.0019003500    0.0332869300    0.1442702100
  -0.0013257600    0.0009320500    0.1234831300
   0.0008434400    0.0002981400    0.1226985300
  -0.0000466100    0.0000135300   -0.1207034900
   0.0001134400    0.0002518000   -0.1208379300
  -0.0000807200    0.0002569400   -0.1208171400
  -0.0002395100   -0.0000584100   -0.1208201600
   0.0002747900    0.0000135900   -0.1208354700
  -0.0002487800    0.0000136000   -0.1199641600
  -0.0001717800   -0.0001706700   -0.1208303800
   0.0000176900    0.0000133800   -0.1206798400
   0.0001478900   -0.0002114500   -0.1208248600
  -0.0008356200   -0.0006722200   -0.0016545500
   0.0009832000   -0.0003676000   -0.0008433400
  -0.0001606100    0.0005712900    0.0005465600
   0.0001988100   -0.0004117100    0.0000485200
   0.0003375400    0.0010554000   -0.0012504300
  -0.0005553200   -0.0000147000   -0.0004009500
  -0.0005218300    0.0004250500   -0.0001776800
  -0.0005371300   -0.0002273100    0.0006894200
   0.0004445600   -0.0003589300    0.0003978800
  -0.0001638600    0.0000050000    0.0669857200
  -0.0004087200    0.0004912600    0.0673524100
   0.0008089000    0.0005839400    0.0673480700
  -0.0002186700   -0.0011115100    0.0674071100
   0.0000959400   -0.0004660800    0.0672910400
  -0.0001707200    0.0000038400    0.0657016200
  -0.0009341500    0.0002292700    0.0674091100
   0.0001221500    0.0000093300    0.0668508900
   0.0005942000    0.0003130200    0.0672886700
   0.0049370000   -0.0028773600   -0.0657133200
  -0.0030823200   -0.0017656900   -0.0653729700
   0.0001212900    0.0000284700   -0.0677538600
   0.0000039800   -0.0000710500   -0.0678099600
  -0.0000524200   -0.0000211000   -0.0674432500
   0.0000630500    0.0000303200   -0.0676980900
  -0.0000354300    0.0046242400   -0.0655403000
   0.0001418800   -0.0001223100   -0.0676845300
   0.0001759700    0.0001217100   -0.0672029700
  -0.0353633600   -0.0001161500    0.1613701200
   0.0066888900    0.0007669400    0.2267959600
   0.0000445100   -0.0004449100    0.2292573000
  -0.0011180500    0.0018519300    0.2285917400
   0.0024448200    0.0037687300    0.2274572300
  -0.0000877000    0.0000140100    0.2289283000
   0.0021888300   -0.0050897600    0.2273617700
  -0.0000879400    0.0000139100    0.2289247500
  -0.0008683600   -0.0007602400    0.2286885700
  -0.0000057300    0.0000032100   -0.2303366700
   0.0000615600    0.0000069100   -0.2303059500
   0.0000773000   -0.0002762700   -0.2304972800
   0.0001983500    0.0000546700   -0.2304179100
  -0.0000202200   -0.0000521800   -0.2302463100
  -0.0002577100    0.0001782200   -0.2305805200
   0.0000247200   -0.0000533100   -0.2303241400
   0.0000025600   -0.0000290000   -0.2302587000
   0.0000688700    0.0000355900   -0.2302355900

46   
 -0.0034698222599007   0.0000000000000000  -0.0093787170489730
  -0.0421938100    0.0233215400    0.0886353700
   0.0165192200    0.0105729700    0.1056608200
   0.0011576500    0.0019744800    0.1176555500
  -0.0016014700   -0.0016074900    0.1173891900
  -0.0002524500    0.0012359400    0.1183725100
   0.0018474100   -0.0004127000    0.1179161200
   0.0017970000   -0.0338063100    0.0972176700
   0.0013778200   -0.0009523800    0.1179780500
   0.0007876900   -0.0003201600    0.1187668300
   0.0000072700    0.0000135100   -0.1207423400
   0.0001661800   -0.0002257500   -0.1206125200
   0.0000308700   -0.0002294700   -0.1206307900
   0.0001863100    0.0000838000   -0.1206312300
   0.0003298000    0.0000144400   -0.1206127000
   0.0001996300    0.0000135500   -0.1214745300
   0.0001184900    0.0001974700   -0.1206219200
   0.0000673400    0.0000133500   -0.1207719400
   0.0002010300    0.0002410900   -0.1206216200
   0.0008531700    0.0006913500    0.0016711100
   0.0009631800    0.0003676000    0.0008518800
   0.0001325100    0.0005838000    0.0005498400
   0.0001778200    0.0004199700    0.0000699600
   0.0003354200    0.0010433200    0.0012601400
   0.0005490900    0.0000087700    0.0004193200
   0.0005419500    0.0004302100    0.0001732400
   0.0005469200    0.0002291800    0.0007015800
   0.0004720800    0.0003393800    0.0004039000
   0.0001362100    0.0000049300    0.0670462400
   0.0003896100   -0.0004652300    0.0666842600
   0.0008285200   -0.0005737000    0.0666873700
   0.0001946700    0.0011148700    0.0666284000
   0.0001035900    0.0004738800    0.0667410200
   0.0001278000    0.0000037800    0.0683069400
   0.0009037800   -0.0002129100    0.0666267200
   0.0001310800    0.0000093500    0.0671774100
   0.0006165300   -0.0002972000    0.0667424000
   0.0050171200    0.0029230700    0.0684435900
   0.0031172200    0.0017600600    0.0687003400
   0.0000867200   -0.0000418100   -0.0662742600
   0.0000274100    0.0000625700   -0.0662187200
   0.0000592700    0.0000133700   -0.0665895500
   0.0000350800   -0.0000331100   -0.0663299700
   0.0000572000   -0.0047021000   -0.0685689700
   0.0001226000    0.0000948500   -0.0663459600
   0.0001481400   -0.0001299100   -0.0668340900
   0.0366880600   -0.0001190800    0.2998681300
   0.0067312800   -0.0007344600    0.2340146000
   0.0001234300    0.0004784900    0.2315725500
   0.0010656300   -0.0018285900    0.2322252100
   0.0024979900   -0.0037389000    0.2333574400
   0.0000278800    0.0000139800    0.2318948700
   0.0022535900    0.0051312700    0.2334469900
   0.0000277000    0.0000138500    0.2318914100
   0.0008151100    0.0007843800    0.2321371400
   0.0000612700   -0.0000315700   -0.2304993900
   0.0000038400   -0.0000348100   -0.2305176500
   0.0000237700    0.0002490600   -0.2303266500
   0.0001394300   -0.0000820600   -0.2304155900
   0.0000704600    0.0000275200   -0.2305842900
   0.0003144600   -0.0002105300   -0.2302414400
   0.0000315400    0.0000231200   -0.2305112900
   0.0000553800   -0.0000071700   -0.2305711700
  -0.0000164500   -0.0000660500   -0.2305991400
