phonopy:
  version: 2.4.2
  frequency_unit_conversion_factor: 15.633302
  symmetry_tolerance: 1.00000e-05
  configuration:
    band: "auto"
    nac: ".true."

physical_unit:
  atomic_mass: "AMU"
  length: "Angstrom"
  force_constants: "eV/Angstrom^2"

supercell_matrix:
- [   3,   0,   0 ]
- [   0,   3,   0 ]
- [   0,   0,   1 ]

space_group:
  type: "P-3m1"
  number: 164
  Hall_symbol: "-P 3 2\""

primitive_matrix:
- [  1.000000000000000, -0.000000000000000,  0.000000000000000 ]
- [  0.000000000000000,  1.000000000000000,  0.000000000000000 ]
- [  0.000000000000000,  0.000000000000000,  1.000000000000000 ]

primitive_cell:
  lattice:
  - [     3.560145166469058,     0.000000000000000,     0.000000000000000 ] # a
  - [    -1.780072583234529,     3.083176921297913,     0.000000000000000 ] # b
  - [     0.000000000000000,     0.000000000000000,    28.868563000000002 ] # c
  points:
  - symbol: Ga # 1
    coordinates: [  0.333333000000003,  0.666666999999997,  0.614845269087282 ]
    mass: 69.723000
  - symbol: Ga # 2
    coordinates: [  0.666666999999997,  0.333333000000003,  0.385154730912718 ]
    mass: 69.723000
  - symbol: Co # 3
    coordinates: [  0.000000000000000,  0.000000000000000,  0.500000000000000 ]
    mass: 58.933195
  - symbol: S  # 4
    coordinates: [  0.666666999999997,  0.333333000000003,  0.463590460923103 ]
    mass: 32.065000
  - symbol: S  # 5
    coordinates: [  0.333333000000003,  0.666666999999997,  0.536409539076897 ]
    mass: 32.065000
  - symbol: S  # 6
    coordinates: [  0.666666999999997,  0.333333000000003,  0.652604435914053 ]
    mass: 32.065000
  - symbol: S  # 7
    coordinates: [  0.333333000000003,  0.666666999999997,  0.347395564085947 ]
    mass: 32.065000
  reciprocal_lattice: # without 2pi
  - [     0.280887422630521,     0.162170388778571,     0.000000000000000 ] # a*
  - [     0.000000000000000,     0.324340777557142,     0.000000000000000 ] # b*
  - [     0.000000000000000,     0.000000000000000,     0.034639756748543 ] # c*

unit_cell:
  lattice:
  - [     3.560145166469058,     0.000000000000000,     0.000000000000000 ] # a
  - [    -1.780072583234529,     3.083176921297913,     0.000000000000000 ] # b
  - [     0.000000000000000,     0.000000000000000,    28.868563000000002 ] # c
  points:
  - symbol: Ga # 1
    coordinates: [  0.333333000000003,  0.666666999999997,  0.614845269087282 ]
    mass: 69.723000
    reduced_to: 1
  - symbol: Ga # 2
    coordinates: [  0.666666999999997,  0.333333000000003,  0.385154730912718 ]
    mass: 69.723000
    reduced_to: 2
  - symbol: Co # 3
    coordinates: [  0.000000000000000, -0.000000000000000,  0.500000000000000 ]
    mass: 58.933195
    reduced_to: 3
  - symbol: S  # 4
    coordinates: [  0.666666999999997,  0.333333000000003,  0.463590460923103 ]
    mass: 32.065000
    reduced_to: 4
  - symbol: S  # 5
    coordinates: [  0.333333000000003,  0.666666999999997,  0.536409539076897 ]
    mass: 32.065000
    reduced_to: 5
  - symbol: S  # 6
    coordinates: [  0.666666999999997,  0.333333000000003,  0.652604435914053 ]
    mass: 32.065000
    reduced_to: 6
  - symbol: S  # 7
    coordinates: [  0.333333000000003,  0.666666999999997,  0.347395564085947 ]
    mass: 32.065000
    reduced_to: 7

supercell:
  lattice:
  - [    10.680435499407174,     0.000000000000000,     0.000000000000000 ] # a
  - [    -5.340217749703587,     9.249530763893739,     0.000000000000000 ] # b
  - [     0.000000000000000,     0.000000000000000,    28.868563000000002 ] # c
  points:
  - symbol: Ga # 1
    coordinates: [  0.111111000000001,  0.222222333333332,  0.614845269087282 ]
    mass: 69.723000
    reduced_to: 1
  - symbol: Ga # 2
    coordinates: [  0.444444333333334,  0.222222333333332,  0.614845269087282 ]
    mass: 69.723000
    reduced_to: 1
  - symbol: Ga # 3
    coordinates: [  0.777777666666668,  0.222222333333332,  0.614845269087282 ]
    mass: 69.723000
    reduced_to: 1
  - symbol: Ga # 4
    coordinates: [  0.111111000000001,  0.555555666666666,  0.614845269087282 ]
    mass: 69.723000
    reduced_to: 1
  - symbol: Ga # 5
    coordinates: [  0.444444333333334,  0.555555666666666,  0.614845269087282 ]
    mass: 69.723000
    reduced_to: 1
  - symbol: Ga # 6
    coordinates: [  0.777777666666668,  0.555555666666666,  0.614845269087282 ]
    mass: 69.723000
    reduced_to: 1
  - symbol: Ga # 7
    coordinates: [  0.111111000000001,  0.888888999999999,  0.614845269087282 ]
    mass: 69.723000
    reduced_to: 1
  - symbol: Ga # 8
    coordinates: [  0.444444333333334,  0.888888999999999,  0.614845269087282 ]
    mass: 69.723000
    reduced_to: 1
  - symbol: Ga # 9
    coordinates: [  0.777777666666668,  0.888888999999999,  0.614845269087282 ]
    mass: 69.723000
    reduced_to: 1
  - symbol: Ga # 10
    coordinates: [  0.222222333333332,  0.111111000000001,  0.385154730912718 ]
    mass: 69.723000
    reduced_to: 10
  - symbol: Ga # 11
    coordinates: [  0.555555666666666,  0.111111000000001,  0.385154730912718 ]
    mass: 69.723000
    reduced_to: 10
  - symbol: Ga # 12
    coordinates: [  0.888888999999999,  0.111111000000001,  0.385154730912718 ]
    mass: 69.723000
    reduced_to: 10
  - symbol: Ga # 13
    coordinates: [  0.222222333333332,  0.444444333333334,  0.385154730912718 ]
    mass: 69.723000
    reduced_to: 10
  - symbol: Ga # 14
    coordinates: [  0.555555666666666,  0.444444333333334,  0.385154730912718 ]
    mass: 69.723000
    reduced_to: 10
  - symbol: Ga # 15
    coordinates: [  0.888888999999999,  0.444444333333334,  0.385154730912718 ]
    mass: 69.723000
    reduced_to: 10
  - symbol: Ga # 16
    coordinates: [  0.222222333333332,  0.777777666666668,  0.385154730912718 ]
    mass: 69.723000
    reduced_to: 10
  - symbol: Ga # 17
    coordinates: [  0.555555666666666,  0.777777666666668,  0.385154730912718 ]
    mass: 69.723000
    reduced_to: 10
  - symbol: Ga # 18
    coordinates: [  0.888888999999999,  0.777777666666668,  0.385154730912718 ]
    mass: 69.723000
    reduced_to: 10
  - symbol: Co # 19
    coordinates: [  0.000000000000000,  0.000000000000000,  0.500000000000000 ]
    mass: 58.933195
    reduced_to: 19
  - symbol: Co # 20
    coordinates: [  0.333333333333333,  0.000000000000000,  0.500000000000000 ]
    mass: 58.933195
    reduced_to: 19
  - symbol: Co # 21
    coordinates: [  0.666666666666667,  0.000000000000000,  0.500000000000000 ]
    mass: 58.933195
    reduced_to: 19
  - symbol: Co # 22
    coordinates: [  0.000000000000000,  0.333333333333333,  0.500000000000000 ]
    mass: 58.933195
    reduced_to: 19
  - symbol: Co # 23
    coordinates: [  0.333333333333333,  0.333333333333333,  0.500000000000000 ]
    mass: 58.933195
    reduced_to: 19
  - symbol: Co # 24
    coordinates: [  0.666666666666667,  0.333333333333333,  0.500000000000000 ]
    mass: 58.933195
    reduced_to: 19
  - symbol: Co # 25
    coordinates: [  0.000000000000000,  0.666666666666667,  0.500000000000000 ]
    mass: 58.933195
    reduced_to: 19
  - symbol: Co # 26
    coordinates: [  0.333333333333333,  0.666666666666667,  0.500000000000000 ]
    mass: 58.933195
    reduced_to: 19
  - symbol: Co # 27
    coordinates: [  0.666666666666667,  0.666666666666667,  0.500000000000000 ]
    mass: 58.933195
    reduced_to: 19
  - symbol: S  # 28
    coordinates: [  0.222222333333332,  0.111111000000001,  0.463590460923103 ]
    mass: 32.065000
    reduced_to: 28
  - symbol: S  # 29
    coordinates: [  0.555555666666666,  0.111111000000001,  0.463590460923103 ]
    mass: 32.065000
    reduced_to: 28
  - symbol: S  # 30
    coordinates: [  0.888888999999999,  0.111111000000001,  0.463590460923103 ]
    mass: 32.065000
    reduced_to: 28
  - symbol: S  # 31
    coordinates: [  0.222222333333332,  0.444444333333334,  0.463590460923103 ]
    mass: 32.065000
    reduced_to: 28
  - symbol: S  # 32
    coordinates: [  0.555555666666666,  0.444444333333334,  0.463590460923103 ]
    mass: 32.065000
    reduced_to: 28
  - symbol: S  # 33
    coordinates: [  0.888888999999999,  0.444444333333334,  0.463590460923103 ]
    mass: 32.065000
    reduced_to: 28
  - symbol: S  # 34
    coordinates: [  0.222222333333332,  0.777777666666668,  0.463590460923103 ]
    mass: 32.065000
    reduced_to: 28
  - symbol: S  # 35
    coordinates: [  0.555555666666666,  0.777777666666668,  0.463590460923103 ]
    mass: 32.065000
    reduced_to: 28
  - symbol: S  # 36
    coordinates: [  0.888888999999999,  0.777777666666668,  0.463590460923103 ]
    mass: 32.065000
    reduced_to: 28
  - symbol: S  # 37
    coordinates: [  0.111111000000001,  0.222222333333332,  0.536409539076897 ]
    mass: 32.065000
    reduced_to: 37
  - symbol: S  # 38
    coordinates: [  0.444444333333334,  0.222222333333332,  0.536409539076897 ]
    mass: 32.065000
    reduced_to: 37
  - symbol: S  # 39
    coordinates: [  0.777777666666668,  0.222222333333332,  0.536409539076897 ]
    mass: 32.065000
    reduced_to: 37
  - symbol: S  # 40
    coordinates: [  0.111111000000001,  0.555555666666666,  0.536409539076897 ]
    mass: 32.065000
    reduced_to: 37
  - symbol: S  # 41
    coordinates: [  0.444444333333334,  0.555555666666666,  0.536409539076897 ]
    mass: 32.065000
    reduced_to: 37
  - symbol: S  # 42
    coordinates: [  0.777777666666668,  0.555555666666666,  0.536409539076897 ]
    mass: 32.065000
    reduced_to: 37
  - symbol: S  # 43
    coordinates: [  0.111111000000001,  0.888888999999999,  0.536409539076897 ]
    mass: 32.065000
    reduced_to: 37
  - symbol: S  # 44
    coordinates: [  0.444444333333334,  0.888888999999999,  0.536409539076897 ]
    mass: 32.065000
    reduced_to: 37
  - symbol: S  # 45
    coordinates: [  0.777777666666668,  0.888888999999999,  0.536409539076897 ]
    mass: 32.065000
    reduced_to: 37
  - symbol: S  # 46
    coordinates: [  0.222222333333332,  0.111111000000001,  0.652604435914053 ]
    mass: 32.065000
    reduced_to: 46
  - symbol: S  # 47
    coordinates: [  0.555555666666666,  0.111111000000001,  0.652604435914053 ]
    mass: 32.065000
    reduced_to: 46
  - symbol: S  # 48
    coordinates: [  0.888888999999999,  0.111111000000001,  0.652604435914053 ]
    mass: 32.065000
    reduced_to: 46
  - symbol: S  # 49
    coordinates: [  0.222222333333332,  0.444444333333334,  0.652604435914053 ]
    mass: 32.065000
    reduced_to: 46
  - symbol: S  # 50
    coordinates: [  0.555555666666666,  0.444444333333334,  0.652604435914053 ]
    mass: 32.065000
    reduced_to: 46
  - symbol: S  # 51
    coordinates: [  0.888888999999999,  0.444444333333334,  0.652604435914053 ]
    mass: 32.065000
    reduced_to: 46
  - symbol: S  # 52
    coordinates: [  0.222222333333332,  0.777777666666668,  0.652604435914053 ]
    mass: 32.065000
    reduced_to: 46
  - symbol: S  # 53
    coordinates: [  0.555555666666666,  0.777777666666668,  0.652604435914053 ]
    mass: 32.065000
    reduced_to: 46
  - symbol: S  # 54
    coordinates: [  0.888888999999999,  0.777777666666668,  0.652604435914053 ]
    mass: 32.065000
    reduced_to: 46
  - symbol: S  # 55
    coordinates: [  0.111111000000001,  0.222222333333332,  0.347395564085947 ]
    mass: 32.065000
    reduced_to: 55
  - symbol: S  # 56
    coordinates: [  0.444444333333334,  0.222222333333332,  0.347395564085947 ]
    mass: 32.065000
    reduced_to: 55
  - symbol: S  # 57
    coordinates: [  0.777777666666668,  0.222222333333332,  0.347395564085947 ]
    mass: 32.065000
    reduced_to: 55
  - symbol: S  # 58
    coordinates: [  0.111111000000001,  0.555555666666666,  0.347395564085947 ]
    mass: 32.065000
    reduced_to: 55
  - symbol: S  # 59
    coordinates: [  0.444444333333334,  0.555555666666666,  0.347395564085947 ]
    mass: 32.065000
    reduced_to: 55
  - symbol: S  # 60
    coordinates: [  0.777777666666668,  0.555555666666666,  0.347395564085947 ]
    mass: 32.065000
    reduced_to: 55
  - symbol: S  # 61
    coordinates: [  0.111111000000001,  0.888888999999999,  0.347395564085947 ]
    mass: 32.065000
    reduced_to: 55
  - symbol: S  # 62
    coordinates: [  0.444444333333334,  0.888888999999999,  0.347395564085947 ]
    mass: 32.065000
    reduced_to: 55
  - symbol: S  # 63
    coordinates: [  0.777777666666668,  0.888888999999999,  0.347395564085947 ]
    mass: 32.065000
    reduced_to: 55
